<?xml version="1.0" encoding="UTF-8"?>

<!-- generated on 12/17/20 14:57:22 by Eclipse SUMO GUI Version 1.8.0
<configuration xmlns:xsi="http://www.w3.org/2001/XMLSchema-instance" xsi:noNamespaceSchemaLocation="http://sumo.dlr.de/xsd/sumoConfiguration.xsd">

    <input>
        <net-file value="data/lane3.net.xml"/>
        <route-files value="data/icacc+.rou.xml"/>
        <additional-files value="data/icacc+.det.xml"/>
    </input>

    <output>
        <tripinfo-output value="tripinfo.xml"/>
    </output>

    <time>
        <begin value="0"/>
        <step-length value="0.1"/>
    </time>

    <processing>
        <collision.mingap-factor value="0"/>
        <time-to-teleport value="-1"/>
        <lanechange.duration value="0.5"/>
    </processing>

    <report>
        <verbose value="true"/>
        <no-step-log value="true"/>
    </report>

    <traci_server>
        <remote-port value="9032"/>
    </traci_server>

    <gui_only>
        <start value="true"/>
        <tracker-interval value="0.1"/>
    </gui_only>

</configuration>
-->

<tripinfos xmlns:xsi="http://www.w3.org/2001/XMLSchema-instance" xsi:noNamespaceSchemaLocation="http://sumo.dlr.de/xsd/tripinfo_file.xsd">
    <tripinfo id="R_1" depart="0.00" departLane="2_1" departPos="8.10" departSpeed="11.18" departDelay="0.00" arrival="35.60" arrivalLane="-1_0" arrivalPos="200.00" arrivalSpeed="11.18" duration="35.60" routeLength="397.06" waitingTime="0.00" waitingCount="0" stopTime="0.00" timeLoss="-2.67" rerouteNo="0" devices="tripinfo_R_1" vType="car8@R_1" speedFactor="0.94" vaporized=""/>
    <tripinfo id="S_0" depart="0.00" departLane="1_0" departPos="7.10" departSpeed="11.18" departDelay="0.00" arrival="37.20" arrivalLane="-3_2" arrivalPos="200.00" arrivalSpeed="11.18" duration="37.20" routeLength="415.30" waitingTime="0.00" waitingCount="0" stopTime="0.00" timeLoss="0.00" rerouteNo="0" devices="tripinfo_S_0" vType="car7@S_0" speedFactor="1.06" vaporized=""/>
