<?xml version="1.0" encoding="UTF-8"?>

<!-- generated on 12/17/20 14:51:52 by Eclipse SUMO GUI Version 1.8.0
<configuration xmlns:xsi="http://www.w3.org/2001/XMLSchema-instance" xsi:noNamespaceSchemaLocation="http://sumo.dlr.de/xsd/sumoConfiguration.xsd">

    <input>
        <net-file value="data/lane3.net.xml"/>
        <route-files value="data/icacc+.rou.xml"/>
        <additional-files value="data/icacc+.det.xml"/>
    </input>

    <output>
        <tripinfo-output value="tripinfo.xml"/>
    </output>

    <time>
        <begin value="0"/>
        <step-length value="0.1"/>
    </time>

    <processing>
        <collision.mingap-factor value="0"/>
        <time-to-teleport value="-1"/>
        <lanechange.duration value="0.5"/>
    </processing>

    <report>
        <verbose value="true"/>
        <no-step-log value="true"/>
    </report>

    <traci_server>
        <remote-port value="8902"/>
    </traci_server>

    <gui_only>
        <start value="true"/>
        <tracker-interval value="0.1"/>
    </gui_only>

</configuration>
-->

<tripinfos xmlns:xsi="http://www.w3.org/2001/XMLSchema-instance" xsi:noNamespaceSchemaLocation="http://sumo.dlr.de/xsd/tripinfo_file.xsd">
    <tripinfo id="R_1" depart="0.00" departLane="2_1" departPos="8.10" departSpeed="11.18" departDelay="0.00" arrival="35.60" arrivalLane="-1_0" arrivalPos="200.00" arrivalSpeed="11.18" duration="35.60" routeLength="397.06" waitingTime="0.00" waitingCount="0" stopTime="0.00" timeLoss="-2.67" rerouteNo="0" devices="tripinfo_R_1" vType="car8@R_1" speedFactor="0.94" vaporized=""/>
    <tripinfo id="S_0" depart="0.00" departLane="1_0" departPos="7.10" departSpeed="11.18" departDelay="0.00" arrival="37.20" arrivalLane="-3_2" arrivalPos="200.00" arrivalSpeed="11.18" duration="37.20" routeLength="415.30" waitingTime="0.00" waitingCount="0" stopTime="0.00" timeLoss="0.00" rerouteNo="0" devices="tripinfo_S_0" vType="car7@S_0" speedFactor="1.06" vaporized=""/>
    <tripinfo id="L_3" depart="1.40" departLane="2_0" departPos="8.10" departSpeed="11.18" departDelay="0.40" arrival="38.50" arrivalLane="-3_2" arrivalPos="200.00" arrivalSpeed="11.18" duration="37.10" routeLength="411.45" waitingTime="0.00" waitingCount="0" stopTime="0.00" timeLoss="-2.12" rerouteNo="0" devices="tripinfo_L_3" vType="car8@L_3" speedFactor="1.08" vaporized=""/>
    <tripinfo id="L_5" depart="2.00" departLane="2_0" departPos="9.10" departSpeed="11.18" departDelay="0.00" arrival="40.00" arrivalLane="-3_0" arrivalPos="200.00" arrivalSpeed="11.18" duration="38.00" routeLength="420.16" waitingTime="0.00" waitingCount="0" stopTime="0.00" timeLoss="-2.32" rerouteNo="0" devices="tripinfo_L_5" vType="car9@L_5" speedFactor="0.83" vaporized=""/>
    <tripinfo id="L_2" depart="1.00" departLane="1_0" departPos="8.10" departSpeed="11.18" departDelay="0.00" arrival="41.20" arrivalLane="-2_2" arrivalPos="200.00" arrivalSpeed="11.18" duration="40.20" routeLength="411.45" waitingTime="0.80" waitingCount="1" stopTime="0.00" timeLoss="-4766.14" rerouteNo="0" devices="tripinfo_L_2" vType="car8@L_2" speedFactor="1.01" vaporized=""/>
    <tripinfo id="L_4" depart="1.00" departLane="3_0" departPos="9.10" departSpeed="11.18" departDelay="0.00" arrival="41.20" arrivalLane="-4_2" arrivalPos="200.00" arrivalSpeed="11.18" duration="40.20" routeLength="410.45" waitingTime="2.30" waitingCount="1" stopTime="0.00" timeLoss="-4528.69" rerouteNo="0" devices="tripinfo_L_4" vType="car9@L_4" speedFactor="1.03" vaporized=""/>
    <tripinfo id="R_11" depart="6.20" departLane="2_2" departPos="6.10" departSpeed="11.18" departDelay="0.20" arrival="42.00" arrivalLane="-1_0" arrivalPos="200.00" arrivalSpeed="11.18" duration="35.80" routeLength="399.06" waitingTime="0.00" waitingCount="0" stopTime="0.00" timeLoss="-2.57" rerouteNo="0" devices="tripinfo_R_11" vType="car6@R_11" speedFactor="1.03" vaporized=""/>
    <tripinfo id="S_7" depart="4.00" departLane="2_2" departPos="6.10" departSpeed="11.18" departDelay="0.00" arrival="42.10" arrivalLane="-4_0" arrivalPos="200.00" arrivalSpeed="11.18" duration="38.10" routeLength="416.30" waitingTime="0.00" waitingCount="0" stopTime="0.00" timeLoss="-9.50" rerouteNo="0" devices="tripinfo_S_7" vType="car6@S_7" speedFactor="0.89" vaporized=""/>
    <tripinfo id="L_6" depart="2.00" departLane="3_1" departPos="6.10" departSpeed="11.18" departDelay="0.00" arrival="42.40" arrivalLane="-4_2" arrivalPos="200.00" arrivalSpeed="11.18" duration="40.40" routeLength="413.45" waitingTime="1.50" waitingCount="1" stopTime="0.00" timeLoss="0.91" rerouteNo="0" devices="tripinfo_L_6" vType="car6@L_6" speedFactor="1.05" vaporized=""/>
    <tripinfo id="R_15" depart="8.00" departLane="4_1" departPos="9.10" departSpeed="11.18" departDelay="0.00" arrival="43.50" arrivalLane="-3_0" arrivalPos="200.00" arrivalSpeed="11.18" duration="35.50" routeLength="396.06" waitingTime="0.00" waitingCount="0" stopTime="0.00" timeLoss="-2.78" rerouteNo="0" devices="tripinfo_R_15" vType="car9@R_15" speedFactor="0.93" vaporized=""/>
    <tripinfo id="R_13" depart="7.00" departLane="3_0" departPos="8.10" departSpeed="11.18" departDelay="0.00" arrival="43.60" arrivalLane="-2_0" arrivalPos="200.00" arrivalSpeed="11.18" duration="36.60" routeLength="397.06" waitingTime="0.00" waitingCount="0" stopTime="0.00" timeLoss="-1.53" rerouteNo="0" devices="tripinfo_R_13" vType="car8@R_13" speedFactor="1.12" vaporized=""/>
    <tripinfo id="S_8" depart="5.00" departLane="2_2" departPos="5.10" departSpeed="11.18" departDelay="0.00" arrival="43.90" arrivalLane="-4_2" arrivalPos="200.00" arrivalSpeed="11.18" duration="38.90" routeLength="417.30" waitingTime="0.60" waitingCount="1" stopTime="0.00" timeLoss="-4058.71" rerouteNo="0" devices="tripinfo_S_8" vType="car5@S_8" speedFactor="0.94" vaporized=""/>
    <tripinfo id="S_9" depart="5.00" departLane="3_2" departPos="7.10" departSpeed="11.18" departDelay="0.00" arrival="44.20" arrivalLane="-1_0" arrivalPos="200.00" arrivalSpeed="11.18" duration="39.20" routeLength="415.30" waitingTime="1.10" waitingCount="1" stopTime="0.00" timeLoss="-4295.58" rerouteNo="0" devices="tripinfo_S_9" vType="car7@S_9" speedFactor="0.86" vaporized=""/>
    <tripinfo id="S_10" depart="5.00" departLane="4_1" departPos="9.10" departSpeed="11.18" departDelay="0.00" arrival="44.80" arrivalLane="-2_2" arrivalPos="200.00" arrivalSpeed="11.18" duration="39.80" routeLength="413.30" waitingTime="1.80" waitingCount="1" stopTime="0.00" timeLoss="-4526.48" rerouteNo="0" devices="tripinfo_S_10" vType="car9@S_10" speedFactor="1.09" vaporized=""/>
    <tripinfo id="L_14" depart="7.00" departLane="4_0" departPos="7.10" departSpeed="11.18" departDelay="0.00" arrival="45.80" arrivalLane="-1_2" arrivalPos="200.00" arrivalSpeed="11.18" duration="38.80" routeLength="412.45" waitingTime="0.60" waitingCount="1" stopTime="0.00" timeLoss="-0.64" rerouteNo="0" devices="tripinfo_L_14" vType="car7@L_14" speedFactor="0.99" vaporized=""/>
    <tripinfo id="L_12" depart="6.00" departLane="3_2" departPos="8.10" departSpeed="11.18" departDelay="0.00" arrival="46.30" arrivalLane="-4_2" arrivalPos="200.00" arrivalSpeed="11.18" duration="40.30" routeLength="411.45" waitingTime="2.20" waitingCount="1" stopTime="0.00" timeLoss="-4670.90" rerouteNo="0" devices="tripinfo_L_12" vType="car8@L_12" speedFactor="1.05" vaporized=""/>
    <tripinfo id="R_20" depart="11.00" departLane="4_2" departPos="7.10" departSpeed="11.18" departDelay="0.00" arrival="46.70" arrivalLane="-3_0" arrivalPos="200.00" arrivalSpeed="11.18" duration="35.70" routeLength="398.06" waitingTime="0.00" waitingCount="0" stopTime="0.00" timeLoss="-2.59" rerouteNo="0" devices="tripinfo_R_20" vType="car7@R_20" speedFactor="1.02" vaporized=""/>
    <tripinfo id="S_17" depart="9.00" departLane="3_2" departPos="5.10" departSpeed="11.18" departDelay="0.00" arrival="46.80" arrivalLane="-1_1" arrivalPos="200.00" arrivalSpeed="11.18" duration="37.80" routeLength="417.30" waitingTime="0.00" waitingCount="0" stopTime="0.00" timeLoss="-0.30" rerouteNo="0" devices="tripinfo_S_17" vType="car5@S_17" speedFactor="0.94" vaporized=""/>
    <tripinfo id="R_21" depart="12.00" departLane="3_1" departPos="9.10" departSpeed="11.18" departDelay="0.00" arrival="47.50" arrivalLane="-2_0" arrivalPos="200.00" arrivalSpeed="11.18" duration="35.50" routeLength="396.06" waitingTime="0.00" waitingCount="0" stopTime="0.00" timeLoss="-2.68" rerouteNo="0" devices="tripinfo_R_21" vType="car9@R_21" speedFactor="1.01" vaporized=""/>
    <tripinfo id="L_19" depart="10.00" departLane="2_0" departPos="6.10" departSpeed="11.18" departDelay="0.00" arrival="48.20" arrivalLane="-3_2" arrivalPos="200.00" arrivalSpeed="11.18" duration="38.20" routeLength="413.45" waitingTime="0.10" waitingCount="1" stopTime="0.00" timeLoss="-4182.22" rerouteNo="0" devices="tripinfo_L_19" vType="car6@L_19" speedFactor="1.16" vaporized=""/>
    <tripinfo id="L_18" depart="9.00" departLane="4_1" departPos="9.10" departSpeed="11.18" departDelay="0.00" arrival="48.90" arrivalLane="-1_2" arrivalPos="200.00" arrivalSpeed="11.18" duration="39.90" routeLength="410.45" waitingTime="1.30" waitingCount="1" stopTime="0.00" timeLoss="-4720.43" rerouteNo="0" devices="tripinfo_L_18" vType="car9@L_18" speedFactor="0.94" vaporized=""/>
    <tripinfo id="R_23" depart="14.00" departLane="2_0" departPos="8.10" departSpeed="11.18" departDelay="0.00" arrival="49.70" arrivalLane="-1_0" arrivalPos="200.00" arrivalSpeed="11.18" duration="35.70" routeLength="397.06" waitingTime="0.00" waitingCount="0" stopTime="0.00" timeLoss="-2.74" rerouteNo="0" devices="tripinfo_R_23" vType="car8@R_23" speedFactor="0.89" vaporized=""/>
    <tripinfo id="S_16" depart="9.00" departLane="1_0" departPos="9.10" departSpeed="11.18" departDelay="0.00" arrival="49.90" arrivalLane="-3_0" arrivalPos="200.00" arrivalSpeed="11.18" duration="40.90" routeLength="413.30" waitingTime="2.90" waitingCount="1" stopTime="0.00" timeLoss="-4526.49" rerouteNo="0" devices="tripinfo_S_16" vType="car9@S_16" speedFactor="0.88" vaporized=""/>
    <tripinfo id="L_22" depart="13.00" departLane="2_2" departPos="9.10" departSpeed="11.18" departDelay="0.00" arrival="50.60" arrivalLane="-3_2" arrivalPos="200.00" arrivalSpeed="11.18" duration="37.60" routeLength="410.45" waitingTime="0.00" waitingCount="0" stopTime="0.00" timeLoss="-3.81" rerouteNo="0" devices="tripinfo_L_22" vType="car9@L_22" speedFactor="0.98" vaporized=""/>
    <tripinfo id="R_24" depart="15.00" departLane="1_2" departPos="8.10" departSpeed="11.18" departDelay="0.00" arrival="50.60" arrivalLane="-4_0" arrivalPos="200.00" arrivalSpeed="11.18" duration="35.60" routeLength="397.06" waitingTime="0.00" waitingCount="0" stopTime="0.00" timeLoss="-2.81" rerouteNo="0" devices="tripinfo_R_24" vType="car8@R_24" speedFactor="0.83" vaporized=""/>
    <tripinfo id="R_25" depart="15.00" departLane="2_1" departPos="8.10" departSpeed="11.18" departDelay="0.00" arrival="52.40" arrivalLane="-1_0" arrivalPos="200.00" arrivalSpeed="11.18" duration="37.40" routeLength="397.06" waitingTime="0.00" waitingCount="0" stopTime="0.00" timeLoss="-0.96" rerouteNo="0" devices="tripinfo_R_25" vType="car8@R_25" speedFactor="0.87" vaporized=""/>
    <tripinfo id="R_29" depart="17.00" departLane="4_2" departPos="5.10" departSpeed="11.18" departDelay="0.00" arrival="52.90" arrivalLane="-3_0" arrivalPos="200.00" arrivalSpeed="11.18" duration="35.90" routeLength="400.06" waitingTime="0.00" waitingCount="0" stopTime="0.00" timeLoss="-2.67" rerouteNo="0" devices="tripinfo_R_29" vType="car5@R_29" speedFactor="0.93" vaporized=""/>
    <tripinfo id="L_26" depart="15.00" departLane="3_2" departPos="9.10" departSpeed="11.18" departDelay="0.00" arrival="53.30" arrivalLane="-4_2" arrivalPos="200.00" arrivalSpeed="11.18" duration="38.30" routeLength="410.45" waitingTime="0.40" waitingCount="1" stopTime="0.00" timeLoss="-4528.94" rerouteNo="0" devices="tripinfo_L_26" vType="car9@L_26" speedFactor="0.92" vaporized=""/>
    <tripinfo id="R_32" depart="18.00" departLane="3_2" departPos="6.10" departSpeed="11.18" departDelay="0.00" arrival="53.80" arrivalLane="-2_0" arrivalPos="200.00" arrivalSpeed="11.18" duration="35.80" routeLength="399.06" waitingTime="0.00" waitingCount="0" stopTime="0.00" timeLoss="-2.60" rerouteNo="0" devices="tripinfo_R_32" vType="car6@R_32" speedFactor="1.01" vaporized=""/>
    <tripinfo id="L_27" depart="17.40" departLane="2_0" departPos="6.10" departSpeed="11.18" departDelay="1.40" arrival="54.70" arrivalLane="-3_2" arrivalPos="200.00" arrivalSpeed="11.18" duration="37.30" routeLength="413.45" waitingTime="0.00" waitingCount="0" stopTime="0.00" timeLoss="-2.37" rerouteNo="0" devices="tripinfo_L_27" vType="car6@L_27" speedFactor="0.95" vaporized=""/>
    <tripinfo id="L_28" depart="17.00" departLane="1_0" departPos="9.10" departSpeed="11.18" departDelay="0.00" arrival="55.10" arrivalLane="-2_2" arrivalPos="200.00" arrivalSpeed="11.18" duration="38.10" routeLength="410.45" waitingTime="0.20" waitingCount="1" stopTime="0.00" timeLoss="-4528.61" rerouteNo="0" devices="tripinfo_L_28" vType="car9@L_28" speedFactor="1.13" vaporized=""/>
    <tripinfo id="R_37" depart="20.00" departLane="2_1" departPos="8.10" departSpeed="11.18" departDelay="0.00" arrival="55.60" arrivalLane="-1_0" arrivalPos="200.00" arrivalSpeed="11.18" duration="35.60" routeLength="397.06" waitingTime="0.00" waitingCount="0" stopTime="0.00" timeLoss="-2.45" rerouteNo="0" devices="tripinfo_R_37" vType="car8@R_37" speedFactor="1.18" vaporized=""/>
    <tripinfo id="R_36" depart="20.00" departLane="1_0" departPos="5.10" departSpeed="11.18" departDelay="0.00" arrival="55.90" arrivalLane="-4_0" arrivalPos="200.00" arrivalSpeed="11.18" duration="35.90" routeLength="400.06" waitingTime="0.00" waitingCount="0" stopTime="0.00" timeLoss="-2.63" rerouteNo="0" devices="tripinfo_R_36" vType="car5@R_36" speedFactor="0.97" vaporized=""/>
    <tripinfo id="S_33" depart="18.20" departLane="4_0" departPos="6.10" departSpeed="11.18" departDelay="0.20" arrival="56.90" arrivalLane="-2_2" arrivalPos="200.00" arrivalSpeed="11.18" duration="38.70" routeLength="416.30" waitingTime="0.50" waitingCount="1" stopTime="0.00" timeLoss="-4180.09" rerouteNo="0" devices="tripinfo_S_33" vType="car6@S_33" speedFactor="1.17" vaporized=""/>
    <tripinfo id="R_40" depart="21.00" departLane="4_0" departPos="5.10" departSpeed="11.18" departDelay="0.00" arrival="56.90" arrivalLane="-3_0" arrivalPos="200.00" arrivalSpeed="11.18" duration="35.90" routeLength="400.06" waitingTime="0.00" waitingCount="0" stopTime="0.00" timeLoss="-2.57" rerouteNo="0" devices="tripinfo_R_40" vType="car5@R_40" speedFactor="1.03" vaporized=""/>
    <tripinfo id="R_39" depart="21.00" departLane="3_0" departPos="6.10" departSpeed="11.18" departDelay="0.00" arrival="57.40" arrivalLane="-2_0" arrivalPos="200.00" arrivalSpeed="11.18" duration="36.40" routeLength="399.06" waitingTime="0.00" waitingCount="0" stopTime="0.00" timeLoss="-3.48" rerouteNo="0" devices="tripinfo_R_39" vType="car6@R_39" speedFactor="0.90" vaporized=""/>
    <tripinfo id="S_31" depart="18.30" departLane="2_1" departPos="6.10" departSpeed="11.18" departDelay="0.30" arrival="57.70" arrivalLane="-4_2" arrivalPos="200.00" arrivalSpeed="11.18" duration="39.40" routeLength="416.30" waitingTime="0.30" waitingCount="1" stopTime="0.00" timeLoss="-4419.98" rerouteNo="0" devices="tripinfo_S_31" vType="car6@S_31" speedFactor="1.15" vaporized=""/>
    <tripinfo id="R_34" depart="22.00" departLane="1_2" departPos="6.10" departSpeed="11.18" departDelay="3.00" arrival="57.80" arrivalLane="-4_0" arrivalPos="200.00" arrivalSpeed="11.18" duration="35.80" routeLength="399.06" waitingTime="0.00" waitingCount="0" stopTime="0.00" timeLoss="-2.61" rerouteNo="0" devices="tripinfo_R_34" vType="car6@R_34" speedFactor="0.99" vaporized=""/>
    <tripinfo id="R_41" depart="22.00" departLane="2_2" departPos="9.10" departSpeed="11.18" departDelay="0.00" arrival="57.80" arrivalLane="-1_0" arrivalPos="200.00" arrivalSpeed="11.18" duration="35.80" routeLength="396.06" waitingTime="0.00" waitingCount="0" stopTime="0.00" timeLoss="-2.88" rerouteNo="0" devices="tripinfo_R_41" vType="car9@R_41" speedFactor="0.96" vaporized=""/>
    <tripinfo id="L_30" depart="18.00" departLane="1_0" departPos="8.10" departSpeed="11.18" departDelay="0.00" arrival="58.20" arrivalLane="-2_2" arrivalPos="200.00" arrivalSpeed="11.18" duration="40.20" routeLength="411.45" waitingTime="0.70" waitingCount="1" stopTime="0.00" timeLoss="-4390.74" rerouteNo="0" devices="tripinfo_L_30" vType="car8@L_30" speedFactor="1.18" vaporized=""/>
    <tripinfo id="R_43" depart="23.00" departLane="2_2" departPos="5.10" departSpeed="11.18" departDelay="0.00" arrival="59.30" arrivalLane="-1_0" arrivalPos="200.00" arrivalSpeed="11.18" duration="36.30" routeLength="400.06" waitingTime="0.00" waitingCount="0" stopTime="0.00" timeLoss="-2.20" rerouteNo="0" devices="tripinfo_R_43" vType="car5@R_43" speedFactor="1.04" vaporized=""/>
    <tripinfo id="L_35" depart="19.50" departLane="4_2" departPos="7.10" departSpeed="11.18" departDelay="0.50" arrival="59.70" arrivalLane="-1_2" arrivalPos="200.00" arrivalSpeed="11.18" duration="40.20" routeLength="412.45" waitingTime="1.20" waitingCount="2" stopTime="0.00" timeLoss="-4845.12" rerouteNo="0" devices="tripinfo_L_35" vType="car7@L_35" speedFactor="1.02" vaporized=""/>