<?xml version="1.0" encoding="UTF-8"?>

<!-- generated on 09/08/20 10:04:19 by Eclipse SUMO GUI Version 1.6.0
<configuration xmlns:xsi="http://www.w3.org/2001/XMLSchema-instance" xsi:noNamespaceSchemaLocation="http://sumo.dlr.de/xsd/sumoConfiguration.xsd">

    <input>
        <net-file value="data/two_inter.net.xml"/>
        <route-files value="data/icacc+.rou.xml"/>
    </input>

    <output>
        <tripinfo-output value="tripinfo.xml"/>
    </output>

    <time>
        <begin value="0"/>
        <step-length value="0.1"/>
    </time>

    <processing>
        <collision.mingap-factor value="0"/>
        <time-to-teleport value="-1"/>
        <lanechange.duration value="0.5"/>
        <default.speeddev value="1"/>
    </processing>

    <report>
        <verbose value="true"/>
        <log value="error_log.txt"/>
        <no-step-log value="true"/>
    </report>

    <traci_server>
        <remote-port value="13656"/>
    </traci_server>

    <gui_only>
        <start value="true"/>
        <tracker-interval value="0.1"/>
    </gui_only>

</configuration>
-->

<tripinfos xmlns:xsi="http://www.w3.org/2001/XMLSchema-instance" xsi:noNamespaceSchemaLocation="http://sumo.dlr.de/xsd/tripinfo_file.xsd">
    <tripinfo id="LX_3" depart="0.00" departLane="002_001_2_2" departPos="7.10" departSpeed="11.18" departDelay="0.00" arrival="37.30" arrivalLane="003_001_1_2" arrivalPos="200.00" arrivalSpeed="11.18" duration="37.30" routeLength="416.11" waitingTime="0.00" waitingCount="0" stopTime="0.00" timeLoss="-2.36" rerouteNo="1" devices="tripinfo_LX_3" vType="car7@LX_3" speedFactor="1.83" vaporized=""/>
    <tripinfo id="SX_6" depart="1.40" departLane="001_001_4_0" departPos="8.10" departSpeed="11.18" departDelay="0.40" arrival="39.50" arrivalLane="001_002_4_2" arrivalPos="200.00" arrivalSpeed="11.18" duration="38.10" routeLength="419.10" waitingTime="0.00" waitingCount="0" stopTime="0.00" timeLoss="-0.02" rerouteNo="1" devices="tripinfo_SX_6" vType="car8@SX_6" speedFactor="1.00" vaporized=""/>
    <tripinfo id="SX_7" depart="1.00" departLane="002_001_2_0" departPos="5.10" departSpeed="11.18" departDelay="0.00" arrival="40.00" arrivalLane="002_000_2_2" arrivalPos="200.00" arrivalSpeed="11.18" duration="39.00" routeLength="422.10" waitingTime="0.00" waitingCount="0" stopTime="0.00" timeLoss="0.26" rerouteNo="1" devices="tripinfo_SX_7" vType="car5@SX_7" speedFactor="1.91" vaporized=""/>
    <tripinfo id="RX_20" depart="5.00" departLane="002_001_4_1" departPos="5.10" departSpeed="11.18" departDelay="0.00" arrival="41.20" arrivalLane="003_001_1_0" arrivalPos="200.00" arrivalSpeed="11.18" duration="36.20" routeLength="403.93" waitingTime="0.00" waitingCount="0" stopTime="0.00" timeLoss="-2.24" rerouteNo="1" devices="tripinfo_RX_20" vType="car5@RX_20" speedFactor="1.47" vaporized=""/>
    <tripinfo id="LX_14" depart="3.00" departLane="002_001_3_2" departPos="9.10" departSpeed="11.18" departDelay="0.00" arrival="41.60" arrivalLane="002_000_2_2" arrivalPos="200.00" arrivalSpeed="11.18" duration="38.60" routeLength="414.12" waitingTime="0.00" waitingCount="0" stopTime="0.00" timeLoss="-2.45" rerouteNo="1" devices="tripinfo_LX_14" vType="car9@LX_14" speedFactor="1.18" vaporized=""/>
    <tripinfo id="LX_12" depart="3.90" departLane="001_001_4_1" departPos="6.10" departSpeed="11.18" departDelay="0.90" arrival="41.90" arrivalLane="000_001_3_2" arrivalPos="200.00" arrivalSpeed="11.18" duration="38.00" routeLength="417.11" waitingTime="0.00" waitingCount="0" stopTime="0.00" timeLoss="-2.37" rerouteNo="1" devices="tripinfo_LX_12" vType="car6@LX_12" speedFactor="1.30" vaporized=""/>
    <tripinfo id="LX_16" depart="4.00" departLane="002_001_2_2" departPos="6.10" departSpeed="11.18" departDelay="0.00" arrival="42.40" arrivalLane="003_001_1_2" arrivalPos="200.00" arrivalSpeed="11.18" duration="38.40" routeLength="417.11" waitingTime="0.00" waitingCount="0" stopTime="0.00" timeLoss="-2.38" rerouteNo="1" devices="tripinfo_LX_16" vType="car6@LX_16" speedFactor="1.00" vaporized=""/>
    <tripinfo id="SX_9" depart="2.70" departLane="001_001_4_2" departPos="7.10" departSpeed="11.18" departDelay="0.70" arrival="43.50" arrivalLane="001_002_4_1" arrivalPos="200.00" arrivalSpeed="11.18" duration="40.80" routeLength="420.10" waitingTime="0.00" waitingCount="0" stopTime="0.00" timeLoss="-0.35" rerouteNo="1" devices="tripinfo_SX_9" vType="car7@SX_9" speedFactor="1.47" vaporized=""/>
    <tripinfo id="LX_30" depart="7.00" departLane="002_001_3_2" departPos="6.10" departSpeed="11.18" departDelay="0.00" arrival="44.80" arrivalLane="002_000_2_2" arrivalPos="200.00" arrivalSpeed="11.18" duration="37.80" routeLength="417.12" waitingTime="0.00" waitingCount="0" stopTime="0.00" timeLoss="-2.36" rerouteNo="1" devices="tripinfo_LX_30" vType="car6@LX_30" speedFactor="1.17" vaporized=""/>
    <tripinfo id="SX_21" depart="6.00" departLane="001_001_2_2" departPos="9.10" departSpeed="11.18" departDelay="0.00" arrival="44.90" arrivalLane="001_000_2_2" arrivalPos="200.00" arrivalSpeed="11.18" duration="38.90" routeLength="418.10" waitingTime="0.00" waitingCount="0" stopTime="0.00" timeLoss="-0.11" rerouteNo="1" devices="tripinfo_SX_21" vType="car9@SX_21" speedFactor="1.20" vaporized=""/>
    <tripinfo id="RX_39" depart="9.00" departLane="002_001_3_1" departPos="6.10" departSpeed="11.18" departDelay="0.00" arrival="45.10" arrivalLane="002_002_4_0" arrivalPos="200.00" arrivalSpeed="11.18" duration="36.10" routeLength="402.93" waitingTime="0.00" waitingCount="0" stopTime="0.00" timeLoss="-2.67" rerouteNo="1" devices="tripinfo_RX_39" vType="car6@RX_39" speedFactor="1.00" vaporized=""/>
    <tripinfo id="LX_29" depart="7.00" departLane="002_001_2_2" departPos="7.10" departSpeed="11.18" departDelay="0.00" arrival="45.30" arrivalLane="003_001_1_2" arrivalPos="200.00" arrivalSpeed="11.18" duration="38.30" routeLength="416.11" waitingTime="0.00" waitingCount="0" stopTime="0.00" timeLoss="-2.38" rerouteNo="1" devices="tripinfo_LX_29" vType="car7@LX_29" speedFactor="1.00" vaporized=""/>
    <tripinfo id="SX_23" depart="6.00" departLane="002_001_2_1" departPos="5.10" departSpeed="11.18" departDelay="0.00" arrival="46.20" arrivalLane="002_000_2_1" arrivalPos="200.00" arrivalSpeed="11.18" duration="40.20" routeLength="422.10" waitingTime="0.00" waitingCount="0" stopTime="0.00" timeLoss="-0.32" rerouteNo="1" devices="tripinfo_SX_23" vType="car5@SX_23" speedFactor="1.30" vaporized=""/>
    <tripinfo id="RX_45" depart="10.00" departLane="002_001_4_2" departPos="5.10" departSpeed="11.18" departDelay="0.00" arrival="46.60" arrivalLane="003_001_1_0" arrivalPos="200.00" arrivalSpeed="11.18" duration="36.60" routeLength="403.93" waitingTime="0.00" waitingCount="0" stopTime="0.00" timeLoss="-1.83" rerouteNo="1" devices="tripinfo_RX_45" vType="car5@RX_45" speedFactor="1.56" vaporized=""/>
    <tripinfo id="RX_49" depart="11.00" departLane="002_001_3_0" departPos="9.10" departSpeed="11.18" departDelay="0.00" arrival="46.80" arrivalLane="002_002_4_0" arrivalPos="200.00" arrivalSpeed="11.18" duration="35.80" routeLength="399.93" waitingTime="0.00" waitingCount="0" stopTime="0.00" timeLoss="-2.49" rerouteNo="1" devices="tripinfo_RX_49" vType="car9@RX_49" speedFactor="1.20" vaporized=""/>
    <tripinfo id="SX_35" depart="8.20" departLane="002_001_2_2" departPos="6.10" departSpeed="11.18" departDelay="0.20" arrival="47.00" arrivalLane="002_000_2_1" arrivalPos="200.00" arrivalSpeed="11.18" duration="38.80" routeLength="421.10" waitingTime="0.00" waitingCount="0" stopTime="0.00" timeLoss="0.18" rerouteNo="1" devices="tripinfo_SX_35" vType="car6@SX_35" speedFactor="1.18" vaporized=""/>
    <tripinfo id="LX_22" depart="6.00" departLane="001_001_4_2" departPos="6.10" departSpeed="11.18" departDelay="0.00" arrival="47.30" arrivalLane="000_001_3_2" arrivalPos="200.00" arrivalSpeed="11.18" duration="41.30" routeLength="417.11" waitingTime="3.00" waitingCount="1" stopTime="0.00" timeLoss="-4182.45" rerouteNo="1" devices="tripinfo_LX_22" vType="car6@LX_22" speedFactor="1.00" vaporized=""/>
    <tripinfo id="SX_31" depart="7.00" departLane="002_001_4_2" departPos="7.10" departSpeed="11.18" departDelay="0.00" arrival="47.40" arrivalLane="002_002_4_2" arrivalPos="200.00" arrivalSpeed="11.18" duration="40.40" routeLength="420.10" waitingTime="0.00" waitingCount="0" stopTime="0.00" timeLoss="-0.14" rerouteNo="1" devices="tripinfo_SX_31" vType="car7@SX_31" speedFactor="1.96" vaporized=""/>
    <tripinfo id="LX_34" depart="8.40" departLane="001_001_4_0" departPos="8.10" departSpeed="11.18" departDelay="0.40" arrival="48.10" arrivalLane="000_001_3_2" arrivalPos="200.00" arrivalSpeed="11.18" duration="39.70" routeLength="415.11" waitingTime="1.30" waitingCount="1" stopTime="0.00" timeLoss="0.14" rerouteNo="1" devices="tripinfo_LX_34" vType="car8@LX_34" speedFactor="1.24" vaporized=""/>
    <tripinfo id="RX_63" depart="14.00" departLane="002_001_4_1" departPos="9.10" departSpeed="11.18" departDelay="0.00" arrival="49.80" arrivalLane="003_001_1_0" arrivalPos="200.00" arrivalSpeed="11.18" duration="35.80" routeLength="399.93" waitingTime="0.00" waitingCount="0" stopTime="0.00" timeLoss="-2.21" rerouteNo="1" devices="tripinfo_RX_63" vType="car9@RX_63" speedFactor="1.91" vaporized=""/>
    <tripinfo id="SX_40" depart="9.00" departLane="002_001_4_2" departPos="5.10" departSpeed="11.18" departDelay="0.00" arrival="49.90" arrivalLane="002_002_4_1" arrivalPos="200.00" arrivalSpeed="11.18" duration="40.90" routeLength="422.10" waitingTime="0.00" waitingCount="0" stopTime="0.00" timeLoss="2.97" rerouteNo="1" devices="tripinfo_SX_40" vType="car5@SX_40" speedFactor="1.40" vaporized=""/>
    <tripinfo id="SX_50" depart="11.00" departLane="002_001_4_2" departPos="6.10" departSpeed="11.18" departDelay="0.00" arrival="50.60" arrivalLane="002_002_4_1" arrivalPos="200.00" arrivalSpeed="11.18" duration="39.60" routeLength="421.10" waitingTime="0.00" waitingCount="0" stopTime="0.00" timeLoss="1.90" rerouteNo="1" devices="tripinfo_SX_50" vType="car6@SX_50" speedFactor="1.07" vaporized=""/>
    <tripinfo id="LX_44" depart="10.60" departLane="002_001_2_0" departPos="6.10" departSpeed="11.18" departDelay="0.60" arrival="51.40" arrivalLane="003_001_1_2" arrivalPos="200.00" arrivalSpeed="11.18" duration="40.80" routeLength="417.11" waitingTime="2.50" waitingCount="1" stopTime="0.00" timeLoss="-4182.45" rerouteNo="1" devices="tripinfo_LX_44" vType="car6@LX_44" speedFactor="1.00" vaporized=""/>
    <tripinfo id="LX_32" depart="8.00" departLane="001_001_1_0" departPos="7.10" departSpeed="11.18" departDelay="0.00" arrival="51.50" arrivalLane="001_002_4_2" arrivalPos="200.00" arrivalSpeed="11.18" duration="43.50" routeLength="416.12" waitingTime="3.30" waitingCount="2" stopTime="0.00" timeLoss="-4595.34" rerouteNo="1" devices="tripinfo_LX_32" vType="car7@LX_32" speedFactor="1.03" vaporized=""/>
    <tripinfo id="LX_54" depart="12.00" departLane="002_001_2_0" departPos="9.10" departSpeed="11.18" departDelay="0.00" arrival="52.20" arrivalLane="003_001_1_2" arrivalPos="200.00" arrivalSpeed="11.18" duration="40.20" routeLength="414.11" waitingTime="2.10" waitingCount="1" stopTime="0.00" timeLoss="0.66" rerouteNo="1" devices="tripinfo_LX_54" vType="car9@LX_54" speedFactor="1.17" vaporized=""/>
    <tripinfo id="LX_46" depart="11.00" departLane="001_001_1_1" departPos="9.10" departSpeed="11.18" departDelay="0.00" arrival="52.40" arrivalLane="001_002_4_2" arrivalPos="200.00" arrivalSpeed="11.18" duration="41.40" routeLength="414.12" waitingTime="3.10" waitingCount="1" stopTime="0.00" timeLoss="1.83" rerouteNo="1" devices="tripinfo_LX_46" vType="car9@LX_46" speedFactor="1.05" vaporized=""/>
    <tripinfo id="RX_47" depart="11.20" departLane="001_001_2_0" departPos="5.10" departSpeed="11.18" departDelay="0.20" arrival="53.00" arrivalLane="000_001_3_0" arrivalPos="200.00" arrivalSpeed="11.18" duration="41.80" routeLength="403.93" waitingTime="0.00" waitingCount="0" stopTime="0.00" timeLoss="2.91" rerouteNo="1" devices="tripinfo_RX_47" vType="car5@RX_47" speedFactor="1.00" vaporized=""/>
    <tripinfo id="SX_42" depart="10.10" departLane="001_001_2_2" departPos="6.10" departSpeed="11.18" departDelay="0.10" arrival="53.80" arrivalLane="001_000_2_0" arrivalPos="200.00" arrivalSpeed="11.18" duration="43.70" routeLength="421.10" waitingTime="0.00" waitingCount="0" stopTime="0.00" timeLoss="-1.55" rerouteNo="1" devices="tripinfo_SX_42" vType="car6@SX_42" speedFactor="1.23" vaporized=""/>
    <tripinfo id="LX_43" depart="10.00" departLane="001_001_4_1" departPos="8.10" departSpeed="11.18" departDelay="0.00" arrival="54.00" arrivalLane="000_001_3_2" arrivalPos="200.00" arrivalSpeed="11.18" duration="44.00" routeLength="415.11" waitingTime="4.50" waitingCount="2" stopTime="0.00" timeLoss="-4217.13" rerouteNo="1" devices="tripinfo_LX_43" vType="car8@LX_43" speedFactor="1.00" vaporized=""/>
    <tripinfo id="RX_77" depart="18.00" departLane="001_001_2_0" departPos="5.10" departSpeed="11.18" departDelay="0.00" arrival="54.20" arrivalLane="000_001_3_0" arrivalPos="200.00" arrivalSpeed="11.18" duration="36.20" routeLength="403.93" waitingTime="0.00" waitingCount="0" stopTime="0.00" timeLoss="-2.20" rerouteNo="1" devices="tripinfo_RX_77" vType="car5@RX_77" speedFactor="1.99" vaporized=""/>
    <tripinfo id="SX_48" depart="11.00" departLane="001_001_4_0" departPos="9.10" departSpeed="11.18" departDelay="0.00" arrival="54.70" arrivalLane="001_002_4_1" arrivalPos="200.00" arrivalSpeed="11.18" duration="43.70" routeLength="418.10" waitingTime="0.00" waitingCount="0" stopTime="0.00" timeLoss="-2.22" rerouteNo="1" devices="tripinfo_SX_48" vType="car9@SX_48" speedFactor="1.32" vaporized=""/>
    <tripinfo id="RR_2" depart="0.00" departLane="001_001_4_2" departPos="6.10" departSpeed="11.18" departDelay="0.00" arrival="54.80" arrivalLane="002_000_2_0" arrivalPos="200.00" arrivalSpeed="11.18" duration="54.80" routeLength="611.96" waitingTime="0.00" waitingCount="0" stopTime="0.00" timeLoss="-2.98" rerouteNo="2" devices="tripinfo_RR_2" vType="car6@RR_2" speedFactor="1.10" vaporized=""/>
    <tripinfo id="LX_75" depart="17.00" departLane="002_001_3_1" departPos="5.10" departSpeed="11.18" departDelay="0.00" arrival="54.80" arrivalLane="002_000_2_2" arrivalPos="200.00" arrivalSpeed="11.18" duration="37.80" routeLength="418.12" waitingTime="0.00" waitingCount="0" stopTime="0.00" timeLoss="-2.35" rerouteNo="1" devices="tripinfo_LX_75" vType="car5@LX_75" speedFactor="1.00" vaporized=""/>
    <tripinfo id="RX_72" depart="17.00" departLane="001_001_1_0" departPos="9.10" departSpeed="11.18" departDelay="0.00" arrival="54.90" arrivalLane="001_000_2_0" arrivalPos="200.00" arrivalSpeed="11.18" duration="37.90" routeLength="399.93" waitingTime="0.00" waitingCount="0" stopTime="0.00" timeLoss="-2.67" rerouteNo="1" devices="tripinfo_RX_72" vType="car9@RX_72" speedFactor="1.14" vaporized=""/>
    <tripinfo id="LX_53" depart="12.50" departLane="001_001_4_1" departPos="9.10" departSpeed="11.18" departDelay="0.50" arrival="55.00" arrivalLane="000_001_3_2" arrivalPos="200.00" arrivalSpeed="11.18" duration="42.50" routeLength="414.11" waitingTime="4.10" waitingCount="1" stopTime="0.00" timeLoss="2.95" rerouteNo="1" devices="tripinfo_LX_53" vType="car9@LX_53" speedFactor="1.00" vaporized=""/>
    <tripinfo id="SR_0" depart="0.00" departLane="001_001_1_1" departPos="6.10" departSpeed="11.18" departDelay="0.00" arrival="56.40" arrivalLane="002_000_2_0" arrivalPos="200.00" arrivalSpeed="11.18" duration="56.40" routeLength="630.13" waitingTime="0.00" waitingCount="0" stopTime="0.00" timeLoss="-2.21" rerouteNo="2" devices="tripinfo_SR_0" vType="car6@SR_0" speedFactor="1.60" vaporized=""/>
    <tripinfo id="RX_90" depart="21.00" departLane="001_001_1_0" departPos="9.10" departSpeed="11.18" departDelay="0.00" arrival="56.80" arrivalLane="001_000_2_0" arrivalPos="200.00" arrivalSpeed="11.18" duration="35.80" routeLength="399.93" waitingTime="0.00" waitingCount="0" stopTime="0.00" timeLoss="-2.37" rerouteNo="1" devices="tripinfo_RX_90" vType="car9@RX_90" speedFactor="1.32" vaporized=""/>
    <tripinfo id="SX_66" depart="15.00" departLane="002_001_2_1" departPos="9.10" departSpeed="11.18" departDelay="0.00" arrival="57.40" arrivalLane="002_000_2_2" arrivalPos="200.00" arrivalSpeed="11.18" duration="42.40" routeLength="418.10" waitingTime="2.90" waitingCount="1" stopTime="0.00" timeLoss="-4600.09" rerouteNo="1" devices="tripinfo_SX_66" vType="car9@SX_66" speedFactor="1.97" vaporized=""/>
    <tripinfo id="SX_74" depart="17.00" departLane="002_001_2_1" departPos="8.10" departSpeed="11.18" departDelay="0.00" arrival="57.60" arrivalLane="002_000_2_1" arrivalPos="200.00" arrivalSpeed="11.18" duration="40.60" routeLength="419.10" waitingTime="0.00" waitingCount="0" stopTime="0.00" timeLoss="-0.34" rerouteNo="1" devices="tripinfo_SX_74" vType="car8@SX_74" speedFactor="1.65" vaporized=""/>
    <tripinfo id="LR_8" depart="1.50" departLane="002_001_4_2" departPos="9.10" departSpeed="11.18" departDelay="0.50" arrival="57.80" arrivalLane="001_002_4_1" arrivalPos="200.00" arrivalSpeed="11.18" duration="56.30" routeLength="628.30" waitingTime="0.00" waitingCount="0" stopTime="0.00" timeLoss="-2.51" rerouteNo="2" devices="tripinfo_LR_8" vType="car9@LR_8" speedFactor="1.26" vaporized=""/>
    <tripinfo id="RX_94" depart="22.10" departLane="001_001_2_2" departPos="5.10" departSpeed="11.18" departDelay="0.10" arrival="58.30" arrivalLane="000_001_3_0" arrivalPos="200.00" arrivalSpeed="11.18" duration="36.20" routeLength="403.93" waitingTime="0.00" waitingCount="0" stopTime="0.00" timeLoss="-2.53" rerouteNo="1" devices="tripinfo_RX_94" vType="car5@RX_94" speedFactor="1.12" vaporized=""/>
    <tripinfo id="SX_56" depart="13.50" departLane="001_001_2_2" departPos="9.10" departSpeed="11.18" departDelay="0.50" arrival="58.60" arrivalLane="001_000_2_1" arrivalPos="200.00" arrivalSpeed="11.18" duration="45.10" routeLength="418.10" waitingTime="6.40" waitingCount="1" stopTime="0.00" timeLoss="-4776.05" rerouteNo="1" devices="tripinfo_SX_56" vType="car9@SX_56" speedFactor="1.00" vaporized=""/>
    <tripinfo id="RX_96" depart="23.00" departLane="001_001_1_0" departPos="6.10" departSpeed="11.18" departDelay="0.00" arrival="59.10" arrivalLane="001_000_2_0" arrivalPos="200.00" arrivalSpeed="11.18" duration="36.10" routeLength="402.93" waitingTime="0.00" waitingCount="0" stopTime="0.00" timeLoss="-2.62" rerouteNo="1" devices="tripinfo_RX_96" vType="car6@RX_96" speedFactor="1.04" vaporized=""/>
    <tripinfo id="LX_57" depart="13.00" departLane="001_001_4_1" departPos="6.10" departSpeed="11.18" departDelay="0.00" arrival="59.30" arrivalLane="000_001_3_1" arrivalPos="200.00" arrivalSpeed="11.18" duration="46.30" routeLength="422.00" waitingTime="2.50" waitingCount="1" stopTime="0.00" timeLoss="-4695.32" rerouteNo="1" devices="tripinfo_LX_57" vType="car6@LX_57" speedFactor="1.02" vaporized=""/>
    <tripinfo id="LX_79" depart="18.00" departLane="002_001_2_2" departPos="8.10" departSpeed="11.18" departDelay="0.00" arrival="59.60" arrivalLane="003_001_1_2" arrivalPos="200.00" arrivalSpeed="11.18" duration="41.60" routeLength="415.11" waitingTime="0.60" waitingCount="2" stopTime="0.00" timeLoss="-4706.72" rerouteNo="1" devices="tripinfo_LX_79" vType="car8@LX_79" speedFactor="1.96" vaporized=""/>
    <tripinfo id="RR_18" depart="5.20" departLane="001_001_4_2" departPos="7.10" departSpeed="11.18" departDelay="0.20" arrival="60.00" arrivalLane="002_000_2_0" arrivalPos="200.00" arrivalSpeed="11.18" duration="54.80" routeLength="610.96" waitingTime="0.00" waitingCount="0" stopTime="0.00" timeLoss="-2.68" rerouteNo="2" devices="tripinfo_RR_18" vType="car7@RR_18" speedFactor="1.26" vaporized=""/>
    <tripinfo id="LL_4" depart="0.00" departLane="002_001_4_1" departPos="5.10" departSpeed="11.18" departDelay="0.00" arrival="60.20" arrivalLane="001_000_2_2" arrivalPos="200.00" arrivalSpeed="11.18" duration="60.20" routeLength="641.33" waitingTime="0.00" waitingCount="0" stopTime="0.00" timeLoss="-2.83" rerouteNo="2" devices="tripinfo_LL_4" vType="car5@LL_4" speedFactor="1.30" vaporized=""/>
    <tripinfo id="LS_1" depart="0.00" departLane="001_001_2_1" departPos="5.10" departSpeed="11.18" departDelay="0.00" arrival="60.90" arrivalLane="003_001_1_1" arrivalPos="200.00" arrivalSpeed="11.18" duration="60.90" routeLength="645.31" waitingTime="0.00" waitingCount="0" stopTime="0.00" timeLoss="-0.55" rerouteNo="2" devices="tripinfo_LS_1" vType="car5@LS_1" speedFactor="1.60" vaporized=""/>
    <tripinfo id="LX_55" depart="13.70" departLane="001_001_1_2" departPos="9.10" departSpeed="11.18" departDelay="0.70" arrival="60.90" arrivalLane="001_002_4_2" arrivalPos="200.00" arrivalSpeed="11.18" duration="47.20" routeLength="414.12" waitingTime="6.40" waitingCount="3" stopTime="0.00" timeLoss="-4996.18" rerouteNo="1" devices="tripinfo_LX_55" vType="car9@LX_55" speedFactor="1.30" vaporized=""/>
    <tripinfo id="RX_82" depart="19.00" departLane="001_001_2_1" departPos="8.10" departSpeed="11.18" departDelay="0.00" arrival="61.00" arrivalLane="000_001_3_1" arrivalPos="200.00" arrivalSpeed="11.18" duration="42.00" routeLength="406.09" waitingTime="3.50" waitingCount="2" stopTime="0.00" timeLoss="-4621.12" rerouteNo="1" devices="tripinfo_RX_82" vType="car8@RX_82" speedFactor="1.03" vaporized=""/>
    <tripinfo id="SL_5" depart="1.00" departLane="001_001_1_2" departPos="7.10" departSpeed="11.18" departDelay="0.00" arrival="61.80" arrivalLane="002_002_4_2" arrivalPos="200.00" arrivalSpeed="11.18" duration="60.80" routeLength="643.32" waitingTime="0.00" waitingCount="0" stopTime="0.00" timeLoss="-2.33" rerouteNo="2" devices="tripinfo_SL_5" vType="car7@SL_5" speedFactor="1.46" vaporized=""/>
    <tripinfo id="RX_104" depart="24.00" departLane="002_001_4_1" departPos="8.10" departSpeed="11.18" departDelay="0.00" arrival="61.90" arrivalLane="003_001_1_1" arrivalPos="200.00" arrivalSpeed="11.18" duration="37.90" routeLength="406.09" waitingTime="0.00" waitingCount="0" stopTime="0.00" timeLoss="-2.34" rerouteNo="1" devices="tripinfo_RX_104" vType="car8@RX_104" speedFactor="1.71" vaporized=""/>
    <tripinfo id="LX_88" depart="20.00" departLane="002_001_3_1" departPos="5.10" departSpeed="11.18" departDelay="0.00" arrival="62.10" arrivalLane="002_000_2_2" arrivalPos="200.00" arrivalSpeed="11.18" duration="42.10" routeLength="418.12" waitingTime="0.00" waitingCount="0" stopTime="0.00" timeLoss="-2.66" rerouteNo="1" devices="tripinfo_LX_88" vType="car5@LX_88" speedFactor="1.32" vaporized=""/>
    <tripinfo id="RX_110" depart="26.00" departLane="001_001_1_1" departPos="5.10" departSpeed="11.18" departDelay="0.00" arrival="62.20" arrivalLane="001_000_2_0" arrivalPos="200.00" arrivalSpeed="11.18" duration="36.20" routeLength="403.93" waitingTime="0.00" waitingCount="0" stopTime="0.00" timeLoss="-2.21" rerouteNo="1" devices="tripinfo_RX_110" vType="car5@RX_110" speedFactor="1.52" vaporized=""/>
    <tripinfo id="RX_106" depart="25.00" departLane="001_001_2_0" departPos="6.10" departSpeed="11.18" departDelay="0.00" arrival="62.50" arrivalLane="000_001_3_0" arrivalPos="200.00" arrivalSpeed="11.18" duration="37.50" routeLength="402.93" waitingTime="0.00" waitingCount="0" stopTime="0.00" timeLoss="-2.29" rerouteNo="1" devices="tripinfo_RX_106" vType="car6@RX_106" speedFactor="1.65" vaporized=""/>
    <tripinfo id="LS_11" depart="3.00" departLane="001_001_2_1" departPos="6.10" departSpeed="11.18" departDelay="0.00" arrival="63.20" arrivalLane="003_001_1_2" arrivalPos="200.00" arrivalSpeed="11.18" duration="60.20" routeLength="644.31" waitingTime="0.00" waitingCount="0" stopTime="0.00" timeLoss="1.01" rerouteNo="2" devices="tripinfo_LS_11" vType="car6@LS_11" speedFactor="1.83" vaporized=""/>
    <tripinfo id="RX_111" depart="26.40" departLane="001_001_2_0" departPos="8.10" departSpeed="11.18" departDelay="0.40" arrival="63.40" arrivalLane="000_001_3_0" arrivalPos="200.00" arrivalSpeed="11.18" duration="37.00" routeLength="400.93" waitingTime="0.00" waitingCount="0" stopTime="0.00" timeLoss="-1.62" rerouteNo="1" devices="tripinfo_RX_111" vType="car8@RX_111" speedFactor="1.04" vaporized=""/>
    <tripinfo id="RX_114" depart="26.00" departLane="002_001_4_1" departPos="8.10" departSpeed="11.18" departDelay="0.00" arrival="63.60" arrivalLane="003_001_1_0" arrivalPos="200.00" arrivalSpeed="11.18" duration="37.60" routeLength="400.93" waitingTime="0.00" waitingCount="0" stopTime="0.00" timeLoss="-2.61" rerouteNo="1" devices="tripinfo_RX_114" vType="car8@RX_114" speedFactor="1.23" vaporized=""/>
    <tripinfo id="SX_103" depart="24.40" departLane="002_001_2_0" departPos="8.10" departSpeed="11.18" departDelay="0.40" arrival="63.80" arrivalLane="002_000_2_1" arrivalPos="200.00" arrivalSpeed="11.18" duration="39.40" routeLength="419.10" waitingTime="0.00" waitingCount="0" stopTime="0.00" timeLoss="-0.08" rerouteNo="1" devices="tripinfo_SX_103" vType="car8@SX_103" speedFactor="1.05" vaporized=""/>
    <tripinfo id="RX_119" depart="28.00" departLane="001_001_1_2" departPos="9.10" departSpeed="11.18" departDelay="0.00" arrival="64.20" arrivalLane="001_000_2_0" arrivalPos="200.00" arrivalSpeed="11.18" duration="36.20" routeLength="399.93" waitingTime="0.00" waitingCount="0" stopTime="0.00" timeLoss="-2.21" rerouteNo="1" devices="tripinfo_RX_119" vType="car9@RX_119" speedFactor="1.83" vaporized=""/>
    <tripinfo id="RX_118" depart="27.20" departLane="002_001_4_0" departPos="6.10" departSpeed="11.18" departDelay="0.20" arrival="64.70" arrivalLane="003_001_1_0" arrivalPos="200.00" arrivalSpeed="11.18" duration="37.50" routeLength="402.93" waitingTime="0.00" waitingCount="0" stopTime="0.00" timeLoss="-1.11" rerouteNo="1" devices="tripinfo_RX_118" vType="car6@RX_118" speedFactor="1.31" vaporized=""/>
    <tripinfo id="SX_65" depart="15.00" departLane="001_001_4_2" departPos="6.10" departSpeed="11.18" departDelay="0.00" arrival="64.90" arrivalLane="001_002_4_2" arrivalPos="200.00" arrivalSpeed="11.18" duration="49.90" routeLength="421.10" waitingTime="10.10" waitingCount="2" stopTime="0.00" timeLoss="-4583.71" rerouteNo="1" devices="tripinfo_SX_65" vType="car6@SX_65" speedFactor="1.10" vaporized=""/>
    <tripinfo id="SX_84" depart="20.90" departLane="002_001_4_2" departPos="8.10" departSpeed="11.18" departDelay="1.90" arrival="65.00" arrivalLane="002_002_4_2" arrivalPos="200.00" arrivalSpeed="11.18" duration="44.10" routeLength="419.10" waitingTime="4.40" waitingCount="2" stopTime="0.00" timeLoss="-4852.33" rerouteNo="1" devices="tripinfo_SX_84" vType="car8@SX_84" speedFactor="1.00" vaporized=""/>
    <tripinfo id="SX_91" depart="21.00" departLane="001_001_2_0" departPos="9.10" departSpeed="11.18" departDelay="0.00" arrival="65.00" arrivalLane="001_000_2_2" arrivalPos="200.00" arrivalSpeed="11.18" duration="44.00" routeLength="418.10" waitingTime="5.60" waitingCount="1" stopTime="0.00" timeLoss="6.54" rerouteNo="1" devices="tripinfo_SX_91" vType="car9@SX_91" speedFactor="1.68" vaporized=""/>
    <tripinfo id="SR_15" depart="4.00" departLane="001_001_1_0" departPos="9.10" departSpeed="11.18" departDelay="0.00" arrival="65.10" arrivalLane="002_000_2_1" arrivalPos="200.00" arrivalSpeed="11.18" duration="61.10" routeLength="632.29" waitingTime="0.00" waitingCount="0" stopTime="0.00" timeLoss="-2.63" rerouteNo="2" devices="tripinfo_SR_15" vType="car9@SR_15" speedFactor="1.10" vaporized=""/>
    <tripinfo id="SX_78" depart="18.00" departLane="001_001_4_1" departPos="8.10" departSpeed="11.18" departDelay="0.00" arrival="65.70" arrivalLane="001_002_4_2" arrivalPos="200.00" arrivalSpeed="11.18" duration="47.70" routeLength="419.10" waitingTime="8.20" waitingCount="2" stopTime="0.00" timeLoss="10.20" rerouteNo="1" devices="tripinfo_SX_78" vType="car8@SX_78" speedFactor="1.09" vaporized=""/>
    <tripinfo id="RX_128" depart="30.20" departLane="001_001_2_2" departPos="6.10" departSpeed="11.18" departDelay="0.20" arrival="66.50" arrivalLane="000_001_3_0" arrivalPos="200.00" arrivalSpeed="11.18" duration="36.30" routeLength="402.93" waitingTime="0.00" waitingCount="0" stopTime="0.00" timeLoss="-2.67" rerouteNo="1" devices="tripinfo_RX_128" vType="car6@RX_128" speedFactor="1.00" vaporized=""/>
    <tripinfo id="RX_100" depart="24.20" departLane="002_001_4_2" departPos="5.10" departSpeed="11.18" departDelay="1.20" arrival="66.80" arrivalLane="003_001_1_2" arrivalPos="200.00" arrivalSpeed="11.18" duration="42.60" routeLength="414.26" waitingTime="3.40" waitingCount="2" stopTime="0.00" timeLoss="3.08" rerouteNo="1" devices="tripinfo_RX_100" vType="car5@RX_100" speedFactor="1.16" vaporized=""/>
    <tripinfo id="LX_81" depart="19.00" departLane="001_001_1_2" departPos="7.10" departSpeed="11.18" departDelay="0.00" arrival="66.90" arrivalLane="001_002_4_2" arrivalPos="200.00" arrivalSpeed="11.18" duration="47.90" routeLength="416.12" waitingTime="7.70" waitingCount="3" stopTime="0.00" timeLoss="-4895.95" rerouteNo="1" devices="tripinfo_LX_81" vType="car7@LX_81" speedFactor="1.04" vaporized=""/>
    <tripinfo id="LX_85" depart="20.00" departLane="001_001_1_1" departPos="5.10" departSpeed="11.18" departDelay="0.00" arrival="67.80" arrivalLane="001_002_4_2" arrivalPos="200.00" arrivalSpeed="11.18" duration="47.80" routeLength="418.12" waitingTime="6.80" waitingCount="3" stopTime="0.00" timeLoss="7.93" rerouteNo="1" devices="tripinfo_LX_85" vType="car5@LX_85" speedFactor="1.31" vaporized=""/>
    <tripinfo id="RX_135" depart="32.00" departLane="001_001_1_0" departPos="9.10" departSpeed="11.18" departDelay="0.00" arrival="67.80" arrivalLane="001_000_2_0" arrivalPos="200.00" arrivalSpeed="11.18" duration="35.80" routeLength="399.93" waitingTime="0.00" waitingCount="0" stopTime="0.00" timeLoss="-2.74" rerouteNo="1" devices="tripinfo_RX_135" vType="car9@RX_135" speedFactor="1.00" vaporized=""/>