<?xml version="1.0" encoding="UTF-8"?>

<!-- generated on 04/20/21 16:32:31 by Eclipse SUMO GUI Version 1.8.0
<configuration xmlns:xsi="http://www.w3.org/2001/XMLSchema-instance" xsi:noNamespaceSchemaLocation="http://sumo.dlr.de/xsd/sumoConfiguration.xsd">

    <input>
        <net-file value="data/lane3.net.xml"/>
        <route-files value="data/icacc+.rou.xml"/>
        <additional-files value="data/icacc+.det.xml"/>
    </input>

    <output>
        <tripinfo-output value="tripinfo.xml"/>
    </output>

    <time>
        <begin value="0"/>
        <step-length value="0.05"/>
    </time>

    <processing>
        <collision.mingap-factor value="0"/>
        <time-to-teleport value="-1"/>
        <lanechange.duration value="0.5"/>
    </processing>

    <report>
        <verbose value="true"/>
        <no-step-log value="true"/>
    </report>

    <traci_server>
        <remote-port value="7936"/>
    </traci_server>

    <gui_only>
        <start value="true"/>
        <tracker-interval value="0.05"/>
    </gui_only>

</configuration>
-->

<tripinfos xmlns:xsi="http://www.w3.org/2001/XMLSchema-instance" xsi:noNamespaceSchemaLocation="http://sumo.dlr.de/xsd/tripinfo_file.xsd">
    <tripinfo id="R_1" depart="0.00" departLane="4_1" departPos="8.10" departSpeed="27.96" departDelay="0.00" arrival="14.60" arrivalLane="-3_0" arrivalPos="200.00" arrivalSpeed="27.96" duration="14.60" routeLength="397.06" waitingTime="0.00" waitingCount="0" stopTime="0.00" timeLoss="-13.55" rerouteNo="0" devices="tripinfo_R_1" vType="car8@R_1" speedFactor="0.94" vaporized=""/>
    <tripinfo id="S_0" depart="0.00" departLane="3_1" departPos="9.10" departSpeed="27.96" departDelay="0.00" arrival="14.80" arrivalLane="-1_2" arrivalPos="200.00" arrivalSpeed="27.96" duration="14.80" routeLength="413.30" waitingTime="0.00" waitingCount="0" stopTime="0.00" timeLoss="0.00" rerouteNo="0" devices="tripinfo_S_0" vType="car9@S_0" speedFactor="1.06" vaporized=""/>
    <tripinfo id="S_4" depart="1.00" departLane="4_2" departPos="9.10" departSpeed="27.96" departDelay="0.00" arrival="15.80" arrivalLane="-2_1" arrivalPos="200.00" arrivalSpeed="27.96" duration="14.80" routeLength="413.30" waitingTime="0.00" waitingCount="0" stopTime="0.00" timeLoss="0.00" rerouteNo="0" devices="tripinfo_S_4" vType="car9@S_4" speedFactor="1.03" vaporized=""/>
    <tripinfo id="S_2" depart="1.00" departLane="1_0" departPos="9.10" departSpeed="27.96" departDelay="0.00" arrival="16.20" arrivalLane="-3_2" arrivalPos="200.00" arrivalSpeed="27.96" duration="15.20" routeLength="413.30" waitingTime="0.00" waitingCount="0" stopTime="0.00" timeLoss="-0.01" rerouteNo="0" devices="tripinfo_S_2" vType="car9@S_2" speedFactor="1.01" vaporized=""/>
    <tripinfo id="S_3" depart="1.00" departLane="2_0" departPos="5.10" departSpeed="27.96" departDelay="0.00" arrival="16.70" arrivalLane="-4_2" arrivalPos="200.00" arrivalSpeed="27.96" duration="15.70" routeLength="417.30" waitingTime="0.00" waitingCount="0" stopTime="0.00" timeLoss="-0.04" rerouteNo="0" devices="tripinfo_S_3" vType="car5@S_3" speedFactor="1.08" vaporized=""/>
    <tripinfo id="S_5" depart="2.00" departLane="2_2" departPos="5.10" departSpeed="27.96" departDelay="0.00" arrival="16.95" arrivalLane="-4_1" arrivalPos="200.00" arrivalSpeed="27.96" duration="14.95" routeLength="417.30" waitingTime="0.00" waitingCount="0" stopTime="0.00" timeLoss="0.00" rerouteNo="0" devices="tripinfo_S_5" vType="car5@S_5" speedFactor="1.06" vaporized=""/>
    <tripinfo id="R_8" depart="3.00" departLane="4_2" departPos="7.10" departSpeed="27.96" departDelay="0.00" arrival="17.60" arrivalLane="-3_0" arrivalPos="200.00" arrivalSpeed="27.96" duration="14.60" routeLength="398.06" waitingTime="0.00" waitingCount="0" stopTime="0.00" timeLoss="-13.47" rerouteNo="0" devices="tripinfo_R_8" vType="car7@R_8" speedFactor="0.94" vaporized=""/>
    <tripinfo id="R_7" depart="3.00" departLane="2_2" departPos="6.10" departSpeed="27.96" departDelay="0.00" arrival="17.65" arrivalLane="-1_0" arrivalPos="200.00" arrivalSpeed="27.96" duration="14.65" routeLength="399.06" waitingTime="0.00" waitingCount="0" stopTime="0.00" timeLoss="-13.51" rerouteNo="0" devices="tripinfo_R_7" vType="car6@R_7" speedFactor="0.94" vaporized=""/>
    <tripinfo id="S_6" depart="3.00" departLane="1_0" departPos="7.10" departSpeed="27.96" departDelay="0.00" arrival="17.85" arrivalLane="-3_2" arrivalPos="200.00" arrivalSpeed="27.96" duration="14.85" routeLength="415.30" waitingTime="0.00" waitingCount="0" stopTime="0.00" timeLoss="0.00" rerouteNo="0" devices="tripinfo_S_6" vType="car7@S_6" speedFactor="1.05" vaporized=""/>
    <tripinfo id="R_10" depart="4.00" departLane="2_1" departPos="5.10" departSpeed="27.96" departDelay="0.00" arrival="18.70" arrivalLane="-1_0" arrivalPos="200.00" arrivalSpeed="27.96" duration="14.70" routeLength="400.06" waitingTime="0.00" waitingCount="0" stopTime="0.00" timeLoss="-13.34" rerouteNo="0" devices="tripinfo_R_10" vType="car5@R_10" speedFactor="1.09" vaporized=""/>
    <tripinfo id="S_9" depart="4.00" departLane="1_2" departPos="5.10" departSpeed="27.96" departDelay="0.00" arrival="18.95" arrivalLane="-3_1" arrivalPos="200.00" arrivalSpeed="27.96" duration="14.95" routeLength="417.30" waitingTime="0.00" waitingCount="0" stopTime="0.00" timeLoss="0.00" rerouteNo="0" devices="tripinfo_S_9" vType="car5@S_9" speedFactor="1.01" vaporized=""/>
    <tripinfo id="R_13" depart="5.00" departLane="4_0" departPos="9.10" departSpeed="27.96" departDelay="0.00" arrival="19.55" arrivalLane="-3_0" arrivalPos="200.00" arrivalSpeed="27.96" duration="14.55" routeLength="396.06" waitingTime="0.00" waitingCount="0" stopTime="0.00" timeLoss="-13.32" rerouteNo="0" devices="tripinfo_R_13" vType="car9@R_13" speedFactor="1.12" vaporized=""/>
    <tripinfo id="S_11" depart="5.00" departLane="1_2" departPos="7.10" departSpeed="27.96" departDelay="0.00" arrival="19.85" arrivalLane="-3_1" arrivalPos="200.00" arrivalSpeed="27.96" duration="14.85" routeLength="415.30" waitingTime="0.00" waitingCount="0" stopTime="0.00" timeLoss="0.00" rerouteNo="0" devices="tripinfo_S_11" vType="car7@S_11" speedFactor="1.03" vaporized=""/>
    <tripinfo id="S_12" depart="5.00" departLane="3_2" departPos="6.10" departSpeed="27.96" departDelay="0.00" arrival="19.95" arrivalLane="-1_1" arrivalPos="200.00" arrivalSpeed="27.96" duration="14.95" routeLength="416.30" waitingTime="0.00" waitingCount="0" stopTime="0.00" timeLoss="0.00" rerouteNo="0" devices="tripinfo_S_12" vType="car6@S_12" speedFactor="1.05" vaporized=""/>
    <tripinfo id="R_17" depart="7.00" departLane="2_2" departPos="6.10" departSpeed="27.96" departDelay="0.00" arrival="21.65" arrivalLane="-1_0" arrivalPos="200.00" arrivalSpeed="27.96" duration="14.65" routeLength="399.06" waitingTime="0.00" waitingCount="0" stopTime="0.00" timeLoss="-13.51" rerouteNo="0" devices="tripinfo_R_17" vType="car6@R_17" speedFactor="0.94" vaporized=""/>
    <tripinfo id="L_15" depart="6.00" departLane="4_1" departPos="9.10" departSpeed="27.96" departDelay="0.00" arrival="22.00" arrivalLane="-1_2" arrivalPos="200.00" arrivalSpeed="27.96" duration="16.00" routeLength="410.45" waitingTime="0.00" waitingCount="0" stopTime="0.00" timeLoss="-12.95" rerouteNo="0" devices="tripinfo_L_15" vType="car9@L_15" speedFactor="1.08" vaporized=""/>
    <tripinfo id="R_18" depart="8.00" departLane="2_2" departPos="8.10" departSpeed="27.96" departDelay="0.00" arrival="22.60" arrivalLane="-1_0" arrivalPos="200.00" arrivalSpeed="27.96" duration="14.60" routeLength="397.06" waitingTime="0.00" waitingCount="0" stopTime="0.00" timeLoss="-13.56" rerouteNo="0" devices="tripinfo_R_18" vType="car8@R_18" speedFactor="0.94" vaporized=""/>
    <tripinfo id="R_19" depart="8.00" departLane="3_0" departPos="7.10" departSpeed="27.96" departDelay="0.00" arrival="22.60" arrivalLane="-2_0" arrivalPos="200.00" arrivalSpeed="27.96" duration="14.60" routeLength="398.06" waitingTime="0.00" waitingCount="0" stopTime="0.00" timeLoss="-13.27" rerouteNo="0" devices="tripinfo_R_19" vType="car7@R_19" speedFactor="1.16" vaporized=""/>
    <tripinfo id="R_20" depart="8.00" departLane="4_0" departPos="5.10" departSpeed="27.96" departDelay="0.00" arrival="22.70" arrivalLane="-3_0" arrivalPos="200.00" arrivalSpeed="27.96" duration="14.70" routeLength="400.06" waitingTime="0.00" waitingCount="0" stopTime="0.00" timeLoss="-13.40" rerouteNo="0" devices="tripinfo_R_20" vType="car5@R_20" speedFactor="1.02" vaporized=""/>
    <tripinfo id="R_21" depart="9.00" departLane="3_0" departPos="6.10" departSpeed="27.96" departDelay="0.00" arrival="23.65" arrivalLane="-2_0" arrivalPos="200.00" arrivalSpeed="27.96" duration="14.65" routeLength="399.06" waitingTime="0.00" waitingCount="0" stopTime="0.00" timeLoss="-13.44" rerouteNo="0" devices="tripinfo_R_21" vType="car6@R_21" speedFactor="1.01" vaporized=""/>
    <tripinfo id="L_14" depart="6.00" departLane="1_0" departPos="7.10" departSpeed="27.96" departDelay="0.00" arrival="24.70" arrivalLane="-2_2" arrivalPos="200.00" arrivalSpeed="27.96" duration="18.70" routeLength="412.45" waitingTime="0.00" waitingCount="0" stopTime="0.00" timeLoss="-14.15" rerouteNo="0" devices="tripinfo_L_14" vType="car7@L_14" speedFactor="0.99" vaporized=""/>
    <tripinfo id="L_16" depart="7.00" departLane="1_0" departPos="9.10" departSpeed="27.96" departDelay="0.00" arrival="25.70" arrivalLane="-2_2" arrivalPos="200.00" arrivalSpeed="27.96" duration="18.70" routeLength="410.45" waitingTime="0.30" waitingCount="1" stopTime="0.00" timeLoss="-4253.92" rerouteNo="0" devices="tripinfo_L_16" vType="car9@L_16" speedFactor="1.03" vaporized=""/>
    <tripinfo id="S_22" depart="11.00" departLane="2_2" departPos="9.10" departSpeed="27.96" departDelay="0.00" arrival="26.85" arrivalLane="-4_1" arrivalPos="200.00" arrivalSpeed="27.96" duration="15.85" routeLength="413.30" waitingTime="0.00" waitingCount="0" stopTime="0.00" timeLoss="-0.11" rerouteNo="0" devices="tripinfo_S_22" vType="car9@S_22" speedFactor="0.98" vaporized=""/>
    <tripinfo id="R_23" depart="11.00" departLane="3_0" departPos="6.10" departSpeed="27.96" departDelay="0.00" arrival="27.45" arrivalLane="-2_2" arrivalPos="200.00" arrivalSpeed="27.96" duration="16.45" routeLength="409.38" waitingTime="0.00" waitingCount="0" stopTime="0.00" timeLoss="-13.42" rerouteNo="0" devices="tripinfo_R_23" vType="car6@R_23" speedFactor="0.93" vaporized=""/>
    <tripinfo id="R_27" depart="13.00" departLane="4_2" departPos="7.10" departSpeed="27.96" departDelay="0.00" arrival="28.05" arrivalLane="-3_0" arrivalPos="200.00" arrivalSpeed="27.96" duration="15.05" routeLength="398.06" waitingTime="0.00" waitingCount="0" stopTime="0.00" timeLoss="-13.45" rerouteNo="0" devices="tripinfo_R_27" vType="car7@R_27" speedFactor="0.95" vaporized=""/>
    <tripinfo id="S_25" depart="13.00" departLane="1_2" departPos="5.10" departSpeed="27.96" departDelay="0.00" arrival="29.10" arrivalLane="-3_1" arrivalPos="200.00" arrivalSpeed="27.96" duration="16.10" routeLength="417.30" waitingTime="0.00" waitingCount="0" stopTime="0.00" timeLoss="-0.18" rerouteNo="0" devices="tripinfo_S_25" vType="car5@S_25" speedFactor="0.93" vaporized=""/>
    <tripinfo id="S_28" depart="14.00" departLane="1_0" departPos="7.10" departSpeed="27.96" departDelay="0.00" arrival="29.40" arrivalLane="-3_1" arrivalPos="200.00" arrivalSpeed="27.96" duration="15.40" routeLength="415.30" waitingTime="0.00" waitingCount="0" stopTime="0.00" timeLoss="0.10" rerouteNo="0" devices="tripinfo_S_28" vType="car7@S_28" speedFactor="1.13" vaporized=""/>
    <tripinfo id="L_24" depart="12.00" departLane="4_2" departPos="7.10" departSpeed="27.96" departDelay="0.00" arrival="29.45" arrivalLane="-1_0" arrivalPos="200.00" arrivalSpeed="27.96" duration="17.45" routeLength="422.16" waitingTime="0.00" waitingCount="0" stopTime="0.00" timeLoss="-12.92" rerouteNo="0" devices="tripinfo_L_24" vType="car7@L_24" speedFactor="1.05" vaporized=""/>
    <tripinfo id="R_31" depart="15.00" departLane="4_0" departPos="6.10" departSpeed="27.96" departDelay="0.00" arrival="29.65" arrivalLane="-3_0" arrivalPos="200.00" arrivalSpeed="27.96" duration="14.65" routeLength="399.06" waitingTime="0.00" waitingCount="0" stopTime="0.00" timeLoss="-13.31" rerouteNo="0" devices="tripinfo_R_31" vType="car6@R_31" speedFactor="1.15" vaporized=""/>
    <tripinfo id="S_29" depart="14.00" departLane="3_0" departPos="5.10" departSpeed="27.96" departDelay="0.00" arrival="30.30" arrivalLane="-1_2" arrivalPos="200.00" arrivalSpeed="27.96" duration="16.30" routeLength="417.30" waitingTime="0.00" waitingCount="0" stopTime="0.00" timeLoss="-0.13" rerouteNo="0" devices="tripinfo_S_29" vType="car5@S_29" speedFactor="0.93" vaporized=""/>
    <tripinfo id="S_32" depart="16.00" departLane="3_1" departPos="5.10" departSpeed="27.96" departDelay="0.00" arrival="30.95" arrivalLane="-1_2" arrivalPos="200.00" arrivalSpeed="27.96" duration="14.95" routeLength="417.30" waitingTime="0.00" waitingCount="0" stopTime="0.00" timeLoss="0.00" rerouteNo="0" devices="tripinfo_S_32" vType="car5@S_32" speedFactor="1.01" vaporized=""/>
    <tripinfo id="L_26" depart="13.00" departLane="2_2" departPos="7.10" departSpeed="27.96" departDelay="0.00" arrival="32.10" arrivalLane="-3_2" arrivalPos="200.00" arrivalSpeed="27.96" duration="19.10" routeLength="412.45" waitingTime="0.00" waitingCount="0" stopTime="0.00" timeLoss="-14.50" rerouteNo="0" devices="tripinfo_L_26" vType="car7@L_26" speedFactor="0.94" vaporized=""/>
    <tripinfo id="L_30" depart="15.00" departLane="2_2" departPos="9.10" departSpeed="27.96" departDelay="0.00" arrival="33.10" arrivalLane="-3_2" arrivalPos="200.00" arrivalSpeed="27.96" duration="18.10" routeLength="410.45" waitingTime="0.30" waitingCount="1" stopTime="0.00" timeLoss="-4442.60" rerouteNo="0" devices="tripinfo_L_30" vType="car9@L_30" speedFactor="1.18" vaporized=""/>
    <tripinfo id="R_39" depart="19.00" departLane="2_1" departPos="6.10" departSpeed="27.96" departDelay="0.00" arrival="33.65" arrivalLane="-1_0" arrivalPos="200.00" arrivalSpeed="27.96" duration="14.65" routeLength="399.06" waitingTime="0.00" waitingCount="0" stopTime="0.00" timeLoss="-13.36" rerouteNo="0" devices="tripinfo_R_39" vType="car6@R_39" speedFactor="1.09" vaporized=""/>
    <tripinfo id="S_33" depart="16.00" departLane="4_0" departPos="6.10" departSpeed="27.96" departDelay="0.00" arrival="34.15" arrivalLane="-2_2" arrivalPos="200.00" arrivalSpeed="27.96" duration="18.15" routeLength="416.30" waitingTime="0.00" waitingCount="0" stopTime="0.00" timeLoss="-1.99" rerouteNo="0" devices="tripinfo_S_33" vType="car6@S_33" speedFactor="1.17" vaporized=""/>
    <tripinfo id="R_38" depart="19.00" departLane="1_0" departPos="9.10" departSpeed="27.96" departDelay="0.00" arrival="34.60" arrivalLane="-4_2" arrivalPos="200.00" arrivalSpeed="27.96" duration="15.60" routeLength="406.38" waitingTime="0.00" waitingCount="0" stopTime="0.00" timeLoss="-13.09" rerouteNo="0" devices="tripinfo_R_38" vType="car9@R_38" speedFactor="1.10" vaporized=""/>
    <tripinfo id="R_42" depart="20.00" departLane="4_2" departPos="6.10" departSpeed="27.96" departDelay="0.00" arrival="34.65" arrivalLane="-3_0" arrivalPos="200.00" arrivalSpeed="27.96" duration="14.65" routeLength="399.06" waitingTime="0.00" waitingCount="0" stopTime="0.00" timeLoss="-13.36" rerouteNo="0" devices="tripinfo_R_42" vType="car6@R_42" speedFactor="1.09" vaporized=""/>
    <tripinfo id="R_44" depart="21.00" departLane="4_0" departPos="5.10" departSpeed="27.96" departDelay="0.00" arrival="35.70" arrivalLane="-3_0" arrivalPos="200.00" arrivalSpeed="27.96" duration="14.70" routeLength="400.06" waitingTime="0.00" waitingCount="0" stopTime="0.00" timeLoss="-13.38" rerouteNo="0" devices="tripinfo_R_44" vType="car5@R_44" speedFactor="1.04" vaporized=""/>
    <tripinfo id="L_34" depart="17.00" departLane="2_0" departPos="8.10" departSpeed="27.96" departDelay="0.00" arrival="36.15" arrivalLane="-3_2" arrivalPos="200.00" arrivalSpeed="27.96" duration="19.15" routeLength="411.45" waitingTime="2.40" waitingCount="2" stopTime="0.00" timeLoss="-4942.31" rerouteNo="0" devices="tripinfo_L_34" vType="car8@L_34" speedFactor="0.99" vaporized=""/>
    <tripinfo id="S_41" depart="20.00" departLane="2_2" departPos="6.10" departSpeed="27.96" departDelay="0.00" arrival="36.25" arrivalLane="-4_1" arrivalPos="200.00" arrivalSpeed="27.96" duration="16.25" routeLength="416.30" waitingTime="0.00" waitingCount="0" stopTime="0.00" timeLoss="-0.13" rerouteNo="0" devices="tripinfo_S_41" vType="car6@S_41" speedFactor="0.96" vaporized=""/>
    <tripinfo id="R_45" depart="22.00" departLane="1_1" departPos="9.10" departSpeed="27.96" departDelay="0.00" arrival="36.55" arrivalLane="-4_0" arrivalPos="200.00" arrivalSpeed="27.96" duration="14.55" routeLength="396.06" waitingTime="0.00" waitingCount="0" stopTime="0.00" timeLoss="-13.35" rerouteNo="0" devices="tripinfo_R_45" vType="car9@R_45" speedFactor="1.09" vaporized=""/>
    <tripinfo id="S_35" depart="17.00" departLane="3_0" departPos="5.10" departSpeed="27.96" departDelay="0.00" arrival="37.15" arrivalLane="-1_1" arrivalPos="200.00" arrivalSpeed="27.96" duration="20.15" routeLength="417.30" waitingTime="0.00" waitingCount="0" stopTime="0.00" timeLoss="-1.26" rerouteNo="0" devices="tripinfo_S_35" vType="car5@S_35" speedFactor="1.02" vaporized=""/>
    <tripinfo id="S_37" depart="18.00" departLane="4_0" departPos="5.10" departSpeed="27.96" departDelay="0.00" arrival="37.35" arrivalLane="-2_2" arrivalPos="200.00" arrivalSpeed="27.96" duration="19.35" routeLength="417.30" waitingTime="0.00" waitingCount="0" stopTime="0.00" timeLoss="-0.38" rerouteNo="0" devices="tripinfo_S_37" vType="car5@S_37" speedFactor="1.18" vaporized=""/>
    <tripinfo id="S_36" depart="18.00" departLane="3_0" departPos="7.10" departSpeed="27.96" departDelay="0.00" arrival="38.10" arrivalLane="-1_2" arrivalPos="200.00" arrivalSpeed="27.96" duration="20.10" routeLength="415.30" waitingTime="0.00" waitingCount="0" stopTime="0.00" timeLoss="-2.51" rerouteNo="0" devices="tripinfo_S_36" vType="car7@S_36" speedFactor="0.97" vaporized=""/>
    <tripinfo id="S_40" depart="19.00" departLane="3_2" departPos="8.10" departSpeed="27.96" departDelay="0.00" arrival="38.50" arrivalLane="-1_2" arrivalPos="200.00" arrivalSpeed="27.96" duration="19.50" routeLength="414.30" waitingTime="0.00" waitingCount="0" stopTime="0.00" timeLoss="4.64" rerouteNo="0" devices="tripinfo_S_40" vType="car8@S_40" speedFactor="1.03" vaporized=""/>
    <tripinfo id="L_43" depart="21.00" departLane="2_1" departPos="5.10" departSpeed="27.96" departDelay="0.00" arrival="39.55" arrivalLane="-3_2" arrivalPos="200.00" arrivalSpeed="27.96" duration="18.55" routeLength="414.45" waitingTime="0.00" waitingCount="0" stopTime="0.00" timeLoss="-13.22" rerouteNo="0" devices="tripinfo_L_43" vType="car5@L_43" speedFactor="1.04" vaporized=""/>
    <tripinfo id="L_46" depart="23.00" departLane="1_2" departPos="7.10" departSpeed="27.96" departDelay="0.00" arrival="40.70" arrivalLane="-2_2" arrivalPos="200.00" arrivalSpeed="27.96" duration="17.70" routeLength="412.45" waitingTime="0.00" waitingCount="0" stopTime="0.00" timeLoss="-13.29" rerouteNo="0" devices="tripinfo_L_46" vType="car7@L_46" speedFactor="1.00" vaporized=""/>
    <tripinfo id="S_49" depart="24.00" departLane="2_1" departPos="7.10" departSpeed="27.96" departDelay="0.00" arrival="41.15" arrivalLane="-4_0" arrivalPos="200.00" arrivalSpeed="27.96" duration="17.15" routeLength="415.30" waitingTime="0.00" waitingCount="0" stopTime="0.00" timeLoss="-0.38" rerouteNo="0" devices="tripinfo_S_49" vType="car7@S_49" speedFactor="1.12" vaporized=""/>
    <tripinfo id="L_48" depart="23.00" departLane="3_0" departPos="7.10" departSpeed="27.96" departDelay="0.00" arrival="41.80" arrivalLane="-4_2" arrivalPos="200.00" arrivalSpeed="27.96" duration="18.80" routeLength="412.45" waitingTime="1.40" waitingCount="1" stopTime="0.00" timeLoss="-4800.84" rerouteNo="0" devices="tripinfo_L_48" vType="car7@L_48" speedFactor="1.05" vaporized=""/>
    <tripinfo id="R_52" depart="27.00" departLane="1_0" departPos="8.10" departSpeed="27.96" departDelay="0.00" arrival="42.10" arrivalLane="-4_0" arrivalPos="200.00" arrivalSpeed="27.96" duration="15.10" routeLength="397.06" waitingTime="0.00" waitingCount="0" stopTime="0.00" timeLoss="-13.42" rerouteNo="0" devices="tripinfo_R_52" vType="car8@R_52" speedFactor="1.02" vaporized=""/>
    <tripinfo id="L_47" depart="23.00" departLane="2_2" departPos="5.10" departSpeed="27.96" departDelay="0.00" arrival="43.20" arrivalLane="-3_2" arrivalPos="200.00" arrivalSpeed="27.96" duration="20.20" routeLength="414.45" waitingTime="2.90" waitingCount="1" stopTime="0.00" timeLoss="-4918.17" rerouteNo="0" devices="tripinfo_L_47" vType="car5@L_47" speedFactor="1.03" vaporized=""/>
    <tripinfo id="S_56" depart="28.00" departLane="2_0" departPos="7.10" departSpeed="27.96" departDelay="0.00" arrival="43.70" arrivalLane="-4_0" arrivalPos="200.00" arrivalSpeed="27.96" duration="15.70" routeLength="415.30" waitingTime="0.00" waitingCount="0" stopTime="0.00" timeLoss="-0.05" rerouteNo="0" devices="tripinfo_S_56" vType="car7@S_56" speedFactor="0.93" vaporized=""/>
    <tripinfo id="S_50" depart="25.00" departLane="4_1" departPos="8.10" departSpeed="27.96" departDelay="0.00" arrival="43.90" arrivalLane="-2_2" arrivalPos="200.00" arrivalSpeed="27.96" duration="18.90" routeLength="414.30" waitingTime="0.00" waitingCount="0" stopTime="0.00" timeLoss="-2.10" rerouteNo="0" devices="tripinfo_S_50" vType="car8@S_50" speedFactor="0.99" vaporized=""/>
    <tripinfo id="S_58" depart="29.00" departLane="2_0" departPos="8.10" departSpeed="27.96" departDelay="0.00" arrival="44.05" arrivalLane="-4_0" arrivalPos="200.00" arrivalSpeed="27.96" duration="15.05" routeLength="414.30" waitingTime="0.00" waitingCount="0" stopTime="0.00" timeLoss="0.04" rerouteNo="0" devices="tripinfo_S_58" vType="car8@S_58" speedFactor="1.02" vaporized=""/>
    <tripinfo id="S_51" depart="26.00" departLane="3_2" departPos="6.10" departSpeed="27.96" departDelay="0.00" arrival="44.70" arrivalLane="-1_1" arrivalPos="200.00" arrivalSpeed="27.96" duration="18.70" routeLength="416.30" waitingTime="0.00" waitingCount="0" stopTime="0.00" timeLoss="-1.26" rerouteNo="0" devices="tripinfo_S_51" vType="car6@S_51" speedFactor="1.17" vaporized=""/>
    <tripinfo id="L_54" depart="27.00" departLane="4_2" departPos="9.10" departSpeed="27.96" departDelay="0.00" arrival="45.45" arrivalLane="-1_2" arrivalPos="200.00" arrivalSpeed="27.96" duration="18.45" routeLength="410.45" waitingTime="0.00" waitingCount="0" stopTime="0.00" timeLoss="-10.58" rerouteNo="0" devices="tripinfo_L_54" vType="car9@L_54" speedFactor="1.00" vaporized=""/>
    <tripinfo id="L_53" depart="27.00" departLane="2_2" departPos="9.10" departSpeed="27.96" departDelay="0.00" arrival="46.25" arrivalLane="-3_2" arrivalPos="200.00" arrivalSpeed="27.96" duration="19.25" routeLength="410.45" waitingTime="0.00" waitingCount="0" stopTime="0.00" timeLoss="-13.24" rerouteNo="0" devices="tripinfo_L_53" vType="car9@L_53" speedFactor="1.10" vaporized=""/>
    <tripinfo id="L_57" depart="28.00" departLane="4_1" departPos="9.10" departSpeed="27.96" departDelay="0.00" arrival="46.60" arrivalLane="-1_2" arrivalPos="200.00" arrivalSpeed="27.96" duration="18.60" routeLength="410.45" waitingTime="0.35" waitingCount="1" stopTime="0.00" timeLoss="-4487.11" rerouteNo="0" devices="tripinfo_L_57" vType="car9@L_57" speedFactor="1.14" vaporized=""/>
    <tripinfo id="R_68" depart="33.00" departLane="4_2" departPos="7.10" departSpeed="27.96" departDelay="0.00" arrival="47.60" arrivalLane="-3_0" arrivalPos="200.00" arrivalSpeed="27.96" duration="14.60" routeLength="398.06" waitingTime="0.00" waitingCount="0" stopTime="0.00" timeLoss="-13.37" rerouteNo="0" devices="tripinfo_R_68" vType="car7@R_68" speedFactor="1.04" vaporized=""/>
    <tripinfo id="R_66" depart="33.00" departLane="1_1" departPos="5.10" departSpeed="27.96" departDelay="0.00" arrival="47.70" arrivalLane="-4_0" arrivalPos="200.00" arrivalSpeed="27.96" duration="14.70" routeLength="400.06" waitingTime="0.00" waitingCount="0" stopTime="0.00" timeLoss="-13.48" rerouteNo="0" devices="tripinfo_R_66" vType="car5@R_66" speedFactor="0.94" vaporized=""/>
    <tripinfo id="R_70" depart="34.00" departLane="3_0" departPos="7.10" departSpeed="27.96" departDelay="0.00" arrival="48.60" arrivalLane="-2_0" arrivalPos="200.00" arrivalSpeed="27.96" duration="14.60" routeLength="398.06" waitingTime="0.00" waitingCount="0" stopTime="0.00" timeLoss="-13.38" rerouteNo="0" devices="tripinfo_R_70" vType="car7@R_70" speedFactor="1.02" vaporized=""/>
    <tripinfo id="L_59" depart="29.00" departLane="3_1" departPos="5.10" departSpeed="27.96" departDelay="0.00" arrival="48.95" arrivalLane="-4_2" arrivalPos="200.00" arrivalSpeed="27.96" duration="19.95" routeLength="414.45" waitingTime="0.00" waitingCount="0" stopTime="0.00" timeLoss="-15.37" rerouteNo="0" devices="tripinfo_L_59" vType="car5@L_59" speedFactor="0.97" vaporized=""/>
    <tripinfo id="L_55" depart="28.00" departLane="1_2" departPos="5.10" departSpeed="27.96" departDelay="0.00" arrival="49.35" arrivalLane="-2_2" arrivalPos="200.00" arrivalSpeed="27.96" duration="21.35" routeLength="414.45" waitingTime="0.00" waitingCount="0" stopTime="0.00" timeLoss="-14.35" rerouteNo="0" devices="tripinfo_L_55" vType="car5@L_55" speedFactor="1.00" vaporized=""/>
    <tripinfo id="L_60" depart="30.00" departLane="3_2" departPos="5.10" departSpeed="27.96" departDelay="0.00" arrival="49.75" arrivalLane="-4_2" arrivalPos="200.00" arrivalSpeed="27.96" duration="19.75" routeLength="414.45" waitingTime="0.10" waitingCount="1" stopTime="0.00" timeLoss="-3981.69" rerouteNo="0" devices="tripinfo_L_60" vType="car5@L_60" speedFactor="1.08" vaporized=""/>
    <tripinfo id="L_61" depart="31.00" departLane="1_0" departPos="8.10" departSpeed="27.96" departDelay="0.00" arrival="50.10" arrivalLane="-2_2" arrivalPos="200.00" arrivalSpeed="27.96" duration="19.10" routeLength="411.45" waitingTime="0.00" waitingCount="0" stopTime="0.00" timeLoss="-16.68" rerouteNo="0" devices="tripinfo_L_61" vType="car8@L_61" speedFactor="1.12" vaporized=""/>
    <tripinfo id="S_71" depart="35.00" departLane="4_2" departPos="9.10" departSpeed="27.96" departDelay="0.00" arrival="50.45" arrivalLane="-2_1" arrivalPos="200.00" arrivalSpeed="27.96" duration="15.45" routeLength="413.30" waitingTime="0.00" waitingCount="0" stopTime="0.00" timeLoss="-0.04" rerouteNo="0" devices="tripinfo_S_71" vType="car9@S_71" speedFactor="0.97" vaporized=""/>
    <tripinfo id="R_72" depart="37.00" departLane="1_2" departPos="6.10" departSpeed="27.96" departDelay="0.00" arrival="51.65" arrivalLane="-4_0" arrivalPos="200.00" arrivalSpeed="27.96" duration="14.65" routeLength="399.06" waitingTime="0.00" waitingCount="0" stopTime="0.00" timeLoss="-13.51" rerouteNo="0" devices="tripinfo_R_72" vType="car6@R_72" speedFactor="0.94" vaporized=""/>
    <tripinfo id="L_63" depart="31.00" departLane="4_0" departPos="9.10" departSpeed="27.96" departDelay="0.00" arrival="52.00" arrivalLane="-1_2" arrivalPos="200.00" arrivalSpeed="27.96" duration="21.00" routeLength="410.45" waitingTime="4.55" waitingCount="1" stopTime="0.00" timeLoss="-3843.16" rerouteNo="0" devices="tripinfo_L_63" vType="car9@L_63" speedFactor="0.99" vaporized=""/>
    <tripinfo id="S_65" depart="32.00" departLane="4_0" departPos="5.10" departSpeed="27.96" departDelay="0.00" arrival="52.10" arrivalLane="-2_2" arrivalPos="200.00" arrivalSpeed="27.96" duration="20.10" routeLength="417.30" waitingTime="4.45" waitingCount="2" stopTime="0.00" timeLoss="-4332.10" rerouteNo="0" devices="tripinfo_S_65" vType="car5@S_65" speedFactor="0.93" vaporized=""/>
    <tripinfo id="S_62" depart="31.00" departLane="3_0" departPos="6.10" departSpeed="27.96" departDelay="0.00" arrival="53.75" arrivalLane="-1_2" arrivalPos="200.00" arrivalSpeed="27.96" duration="22.75" routeLength="416.30" waitingTime="4.50" waitingCount="2" stopTime="0.00" timeLoss="-5002.32" rerouteNo="0" devices="tripinfo_S_62" vType="car6@S_62" speedFactor="1.02" vaporized=""/>
    <tripinfo id="R_83" depart="40.00" departLane="4_1" departPos="5.10" departSpeed="27.96" departDelay="0.00" arrival="54.70" arrivalLane="-3_0" arrivalPos="200.00" arrivalSpeed="27.96" duration="14.70" routeLength="400.06" waitingTime="0.00" waitingCount="0" stopTime="0.00" timeLoss="-13.45" rerouteNo="0" devices="tripinfo_R_83" vType="car5@R_83" speedFactor="0.97" vaporized=""/>
    <tripinfo id="L_64" depart="32.00" departLane="2_2" departPos="6.10" departSpeed="27.96" departDelay="0.00" arrival="54.80" arrivalLane="-3_2" arrivalPos="200.00" arrivalSpeed="27.96" duration="22.80" routeLength="413.45" waitingTime="0.00" waitingCount="0" stopTime="0.00" timeLoss="-18.42" rerouteNo="0" devices="tripinfo_L_64" vType="car6@L_64" speedFactor="0.94" vaporized=""/>
    <tripinfo id="L_67" depart="33.00" departLane="2_1" departPos="5.10" departSpeed="27.96" departDelay="0.00" arrival="55.65" arrivalLane="-3_2" arrivalPos="200.00" arrivalSpeed="27.96" duration="22.65" routeLength="414.45" waitingTime="0.20" waitingCount="1" stopTime="0.00" timeLoss="-4190.63" rerouteNo="0" devices="tripinfo_L_67" vType="car5@L_67" speedFactor="0.94" vaporized=""/>
    <tripinfo id="L_69" depart="34.00" departLane="1_0" departPos="7.10" departSpeed="27.96" departDelay="0.00" arrival="55.90" arrivalLane="-2_2" arrivalPos="200.00" arrivalSpeed="27.96" duration="21.90" routeLength="412.45" waitingTime="5.10" waitingCount="1" stopTime="0.00" timeLoss="-3659.94" rerouteNo="0" devices="tripinfo_L_69" vType="car7@L_69" speedFactor="1.02" vaporized=""/>