<?xml version="1.0" encoding="UTF-8"?>

<!-- generated on 01/14/21 17:33:04 by Eclipse SUMO GUI Version 1.8.0
<configuration xmlns:xsi="http://www.w3.org/2001/XMLSchema-instance" xsi:noNamespaceSchemaLocation="http://sumo.dlr.de/xsd/sumoConfiguration.xsd">

    <input>
        <net-file value="data/net/lane2by2one_lane.net.xml"/>
        <route-files value="data/routes/2_0.5_0.rou.xml"/>
    </input>

    <output>
        <tripinfo-output value="tripinfo.xml"/>
    </output>

    <time>
        <begin value="0"/>
        <step-length value="0.2"/>
    </time>

    <processing>
        <collision.mingap-factor value="0"/>
        <time-to-teleport value="-1"/>
        <lanechange.duration value="0.5"/>
    </processing>

    <report>
        <verbose value="true"/>
        <no-step-log value="true"/>
    </report>

    <traci_server>
        <remote-port value="14559"/>
    </traci_server>

    <gui_only>
        <start value="true"/>
        <tracker-interval value="0.2"/>
    </gui_only>

</configuration>
-->

<tripinfos xmlns:xsi="http://www.w3.org/2001/XMLSchema-instance" xsi:noNamespaceSchemaLocation="http://sumo.dlr.de/xsd/tripinfo_file.xsd">
    <tripinfo id="car_1868_R" depart="0.00" departLane="001_002_2_0" departPos="9.10" departSpeed="11.18" departDelay="0.00" arrival="71.60" arrivalLane="000_002_3_0" arrivalPos="400.00" arrivalSpeed="11.18" duration="71.60" routeLength="799.93" waitingTime="0.00" waitingCount="0" stopTime="0.00" timeLoss="-4.79" rerouteNo="1" devices="tripinfo_car_1868_R" vType="car9@car_1868_R" speedFactor="1.06" vaporized=""/>
    <tripinfo id="car_12648_R" depart="1.00" departLane="002_001_4_0" departPos="8.10" departSpeed="11.18" departDelay="0.00" arrival="72.80" arrivalLane="003_001_1_0" arrivalPos="400.00" arrivalSpeed="11.18" duration="71.80" routeLength="800.93" waitingTime="0.00" waitingCount="0" stopTime="0.00" timeLoss="-4.70" rerouteNo="1" devices="tripinfo_car_12648_R" vType="car8@car_12648_R" speedFactor="1.05" vaporized=""/>
    <tripinfo id="car_5451_L" depart="2.80" departLane="001_001_4_0" departPos="6.10" departSpeed="11.18" departDelay="0.80" arrival="75.20" arrivalLane="000_001_3_0" arrivalPos="400.00" arrivalSpeed="11.18" duration="72.40" routeLength="808.09" waitingTime="0.00" waitingCount="0" stopTime="0.00" timeLoss="-4.55" rerouteNo="1" devices="tripinfo_car_5451_L" vType="car6@car_5451_L" speedFactor="1.08" vaporized=""/>
    <tripinfo id="car_1870_R" depart="3.80" departLane="001_002_2_0" departPos="8.10" departSpeed="11.18" departDelay="0.80" arrival="76.00" arrivalLane="000_002_3_0" arrivalPos="400.00" arrivalSpeed="11.18" duration="72.20" routeLength="800.93" waitingTime="0.00" waitingCount="0" stopTime="0.00" timeLoss="-4.32" rerouteNo="1" devices="tripinfo_car_1870_R" vType="car8@car_1870_R" speedFactor="1.03" vaporized=""/>
    <tripinfo id="car_1872_R" depart="7.20" departLane="001_002_2_0" departPos="5.10" departSpeed="11.18" departDelay="3.20" arrival="79.40" arrivalLane="000_002_3_0" arrivalPos="400.00" arrivalSpeed="11.18" duration="72.20" routeLength="803.93" waitingTime="0.00" waitingCount="0" stopTime="0.00" timeLoss="-4.58" rerouteNo="1" devices="tripinfo_car_1872_R" vType="car5@car_1872_R" speedFactor="1.00" vaporized=""/>
    <tripinfo id="car_12651_R" depart="7.80" departLane="002_001_4_0" departPos="6.10" departSpeed="11.18" departDelay="2.80" arrival="80.20" arrivalLane="003_001_1_0" arrivalPos="400.00" arrivalSpeed="11.18" duration="72.40" routeLength="802.93" waitingTime="0.00" waitingCount="0" stopTime="0.00" timeLoss="-4.35" rerouteNo="1" devices="tripinfo_car_12651_R" vType="car6@car_12651_R" speedFactor="1.00" vaporized=""/>
    <tripinfo id="car_7230_L" depart="8.00" departLane="001_002_1_0" departPos="9.10" departSpeed="11.18" departDelay="2.00" arrival="80.20" arrivalLane="001_003_4_0" arrivalPos="400.00" arrivalSpeed="11.18" duration="72.20" routeLength="805.09" waitingTime="0.00" waitingCount="0" stopTime="0.00" timeLoss="-4.63" rerouteNo="1" devices="tripinfo_car_7230_L" vType="car9@car_7230_L" speedFactor="1.01" vaporized=""/>
    <tripinfo id="car_1873_R" depart="9.00" departLane="001_002_2_0" departPos="7.10" departSpeed="11.18" departDelay="5.00" arrival="81.00" arrivalLane="000_002_3_0" arrivalPos="400.00" arrivalSpeed="11.18" duration="72.00" routeLength="801.93" waitingTime="0.00" waitingCount="0" stopTime="0.00" timeLoss="-4.56" rerouteNo="1" devices="tripinfo_car_1873_R" vType="car7@car_1873_R" speedFactor="1.02" vaporized=""/>
    <tripinfo id="car_9054_L" depart="9.00" departLane="002_002_2_0" departPos="7.10" departSpeed="11.18" departDelay="0.00" arrival="82.40" arrivalLane="003_002_1_0" arrivalPos="400.00" arrivalSpeed="11.18" duration="73.40" routeLength="807.09" waitingTime="0.40" waitingCount="1" stopTime="0.00" timeLoss="-3105.26" rerouteNo="1" devices="tripinfo_car_9054_L" vType="car7@car_9054_L" speedFactor="1.18" vaporized=""/>
    <tripinfo id="car_3_R" depart="9.00" departLane="001_001_1_0" departPos="8.10" departSpeed="11.18" departDelay="0.00" arrival="82.40" arrivalLane="001_000_2_0" arrivalPos="400.00" arrivalSpeed="11.18" duration="73.40" routeLength="800.93" waitingTime="0.60" waitingCount="1" stopTime="0.00" timeLoss="-3.08" rerouteNo="1" devices="tripinfo_car_3_R" vType="car8@car_3_R" speedFactor="1.03" vaporized=""/>
    <tripinfo id="car_1874_R" depart="10.80" departLane="001_002_2_0" departPos="6.10" departSpeed="11.18" departDelay="6.80" arrival="83.00" arrivalLane="000_002_3_0" arrivalPos="400.00" arrivalSpeed="11.18" duration="72.20" routeLength="802.93" waitingTime="0.00" waitingCount="0" stopTime="0.00" timeLoss="-4.57" rerouteNo="1" devices="tripinfo_car_1874_R" vType="car6@car_1874_R" speedFactor="1.01" vaporized=""/>
    <tripinfo id="car_7231_L" depart="11.00" departLane="001_002_1_0" departPos="9.10" departSpeed="11.18" departDelay="0.00" arrival="83.20" arrivalLane="001_003_4_0" arrivalPos="400.00" arrivalSpeed="11.18" duration="72.20" routeLength="805.09" waitingTime="0.00" waitingCount="0" stopTime="0.00" timeLoss="-4.76" rerouteNo="1" devices="tripinfo_car_7231_L" vType="car9@car_7231_L" speedFactor="1.00" vaporized=""/>
    <tripinfo id="car_12653_R" depart="11.60" departLane="002_001_4_0" departPos="6.10" departSpeed="11.18" departDelay="1.60" arrival="84.60" arrivalLane="003_001_1_0" arrivalPos="400.00" arrivalSpeed="11.18" duration="73.00" routeLength="802.93" waitingTime="0.00" waitingCount="0" stopTime="0.00" timeLoss="-3.76" rerouteNo="1" devices="tripinfo_car_12653_R" vType="car6@car_12653_R" speedFactor="1.09" vaporized=""/>
    <tripinfo id="car_9056_L" depart="12.60" departLane="002_002_2_0" departPos="7.10" departSpeed="11.18" departDelay="0.60" arrival="85.00" arrivalLane="003_002_1_0" arrivalPos="400.00" arrivalSpeed="11.18" duration="72.40" routeLength="807.09" waitingTime="0.00" waitingCount="0" stopTime="0.00" timeLoss="-4.52" rerouteNo="1" devices="tripinfo_car_9056_L" vType="car7@car_9056_L" speedFactor="1.02" vaporized=""/>
    <tripinfo id="car_12654_R" depart="13.60" departLane="002_001_4_0" departPos="8.10" departSpeed="11.18" departDelay="2.60" arrival="85.80" arrivalLane="003_001_1_0" arrivalPos="400.00" arrivalSpeed="11.18" duration="72.20" routeLength="800.93" waitingTime="0.00" waitingCount="0" stopTime="0.00" timeLoss="-4.36" rerouteNo="1" devices="tripinfo_car_12654_R" vType="car8@car_12654_R" speedFactor="1.00" vaporized=""/>
    <tripinfo id="car_1876_R" depart="14.40" departLane="001_002_2_0" departPos="9.10" departSpeed="11.18" departDelay="3.40" arrival="86.20" arrivalLane="000_002_3_0" arrivalPos="400.00" arrivalSpeed="11.18" duration="71.80" routeLength="799.93" waitingTime="0.00" waitingCount="0" stopTime="0.00" timeLoss="-4.57" rerouteNo="1" devices="tripinfo_car_1876_R" vType="car9@car_1876_R" speedFactor="1.01" vaporized=""/>
    <tripinfo id="car_10833_R" depart="16.00" departLane="002_002_3_0" departPos="9.10" departSpeed="11.18" departDelay="0.00" arrival="87.60" arrivalLane="002_003_4_0" arrivalPos="400.00" arrivalSpeed="11.18" duration="71.60" routeLength="799.93" waitingTime="0.00" waitingCount="0" stopTime="0.00" timeLoss="-4.85" rerouteNo="1" devices="tripinfo_car_10833_R" vType="car9@car_10833_R" speedFactor="1.02" vaporized=""/>
    <tripinfo id="car_12655_R" depart="15.60" departLane="002_001_4_0" departPos="8.10" departSpeed="11.18" departDelay="3.60" arrival="87.80" arrivalLane="003_001_1_0" arrivalPos="400.00" arrivalSpeed="11.18" duration="72.20" routeLength="800.93" waitingTime="0.00" waitingCount="0" stopTime="0.00" timeLoss="-4.35" rerouteNo="1" devices="tripinfo_car_12655_R" vType="car8@car_12655_R" speedFactor="1.00" vaporized=""/>
    <tripinfo id="car_1877_R" depart="16.40" departLane="001_002_2_0" departPos="8.10" departSpeed="11.18" departDelay="5.40" arrival="88.40" arrivalLane="000_002_3_0" arrivalPos="400.00" arrivalSpeed="11.18" duration="72.00" routeLength="800.93" waitingTime="0.00" waitingCount="0" stopTime="0.00" timeLoss="-4.58" rerouteNo="1" devices="tripinfo_car_1877_R" vType="car8@car_1877_R" speedFactor="1.00" vaporized=""/>
    <tripinfo id="car_9058_L" depart="17.00" departLane="002_002_2_0" departPos="8.10" departSpeed="11.18" departDelay="2.00" arrival="89.40" arrivalLane="003_002_1_0" arrivalPos="400.00" arrivalSpeed="11.18" duration="72.40" routeLength="806.09" waitingTime="0.00" waitingCount="0" stopTime="0.00" timeLoss="-4.21" rerouteNo="1" devices="tripinfo_car_9058_L" vType="car8@car_9058_L" speedFactor="1.15" vaporized=""/>
    <tripinfo id="car_12656_R" depart="17.20" departLane="002_001_4_0" departPos="5.10" departSpeed="11.18" departDelay="3.20" arrival="89.60" arrivalLane="003_001_1_0" arrivalPos="400.00" arrivalSpeed="11.18" duration="72.40" routeLength="803.93" waitingTime="0.00" waitingCount="0" stopTime="0.00" timeLoss="-4.26" rerouteNo="1" devices="tripinfo_car_12656_R" vType="car5@car_12656_R" speedFactor="1.08" vaporized=""/>
    <tripinfo id="car_1878_R" depart="18.00" departLane="001_002_2_0" departPos="5.10" departSpeed="11.18" departDelay="6.00" arrival="90.20" arrivalLane="000_002_3_0" arrivalPos="400.00" arrivalSpeed="11.18" duration="72.20" routeLength="803.93" waitingTime="0.00" waitingCount="0" stopTime="0.00" timeLoss="-4.39" rerouteNo="1" devices="tripinfo_car_1878_R" vType="car5@car_1878_R" speedFactor="1.17" vaporized=""/>
    <tripinfo id="car_12657_R" depart="19.00" departLane="002_001_4_0" departPos="7.10" departSpeed="11.18" departDelay="4.00" arrival="91.20" arrivalLane="003_001_1_0" arrivalPos="400.00" arrivalSpeed="11.18" duration="72.20" routeLength="801.93" waitingTime="0.00" waitingCount="0" stopTime="0.00" timeLoss="-4.17" rerouteNo="1" devices="tripinfo_car_12657_R" vType="car7@car_12657_R" speedFactor="1.17" vaporized=""/>
    <tripinfo id="car_12658_R" depart="21.00" departLane="002_001_4_0" departPos="9.10" departSpeed="11.18" departDelay="3.00" arrival="93.00" arrivalLane="003_001_1_0" arrivalPos="400.00" arrivalSpeed="11.18" duration="72.00" routeLength="799.93" waitingTime="0.00" waitingCount="0" stopTime="0.00" timeLoss="-4.40" rerouteNo="1" devices="tripinfo_car_12658_R" vType="car9@car_12658_R" speedFactor="1.06" vaporized=""/>
    <tripinfo id="car_3654_L" depart="21.00" departLane="002_001_3_0" departPos="8.10" departSpeed="11.18" departDelay="6.00" arrival="93.80" arrivalLane="002_000_2_0" arrivalPos="400.00" arrivalSpeed="11.18" duration="72.80" routeLength="806.09" waitingTime="0.00" waitingCount="0" stopTime="0.00" timeLoss="-3.97" rerouteNo="1" devices="tripinfo_car_3654_L" vType="car8@car_3654_L" speedFactor="1.12" vaporized=""/>
    <tripinfo id="car_1880_R" depart="22.00" departLane="001_002_2_0" departPos="9.10" departSpeed="11.18" departDelay="4.00" arrival="93.80" arrivalLane="000_002_3_0" arrivalPos="400.00" arrivalSpeed="11.18" duration="71.80" routeLength="799.93" waitingTime="0.00" waitingCount="0" stopTime="0.00" timeLoss="-4.56" rerouteNo="1" devices="tripinfo_car_1880_R" vType="car9@car_1880_R" speedFactor="1.02" vaporized=""/>
    <tripinfo id="car_9059_L" depart="22.00" departLane="002_002_2_0" departPos="8.10" departSpeed="11.18" departDelay="0.00" arrival="95.40" arrivalLane="003_002_1_0" arrivalPos="400.00" arrivalSpeed="11.18" duration="73.40" routeLength="806.09" waitingTime="0.40" waitingCount="1" stopTime="0.00" timeLoss="-4318.49" rerouteNo="1" devices="tripinfo_car_9059_L" vType="car8@car_9059_L" speedFactor="1.00" vaporized=""/>
    <tripinfo id="car_5459_L" depart="23.00" departLane="001_001_4_0" departPos="9.10" departSpeed="11.18" departDelay="0.00" arrival="95.80" arrivalLane="000_001_3_0" arrivalPos="400.00" arrivalSpeed="11.18" duration="72.80" routeLength="805.09" waitingTime="0.00" waitingCount="0" stopTime="0.00" timeLoss="-6.35" rerouteNo="1" devices="tripinfo_car_5459_L" vType="car9@car_5459_L" speedFactor="1.09" vaporized=""/>
    <tripinfo id="car_8_R" depart="24.00" departLane="001_001_1_0" departPos="7.10" departSpeed="11.18" departDelay="0.00" arrival="95.80" arrivalLane="001_000_2_0" arrivalPos="400.00" arrivalSpeed="11.18" duration="71.80" routeLength="801.93" waitingTime="0.00" waitingCount="0" stopTime="0.00" timeLoss="-4.69" rerouteNo="1" devices="tripinfo_car_8_R" vType="car7@car_8_R" speedFactor="1.06" vaporized=""/>
    <tripinfo id="car_10838_R" depart="25.60" departLane="002_002_3_0" departPos="8.10" departSpeed="11.18" departDelay="3.60" arrival="98.40" arrivalLane="002_003_4_0" arrivalPos="400.00" arrivalSpeed="11.18" duration="72.80" routeLength="800.93" waitingTime="0.00" waitingCount="0" stopTime="0.00" timeLoss="-3.96" rerouteNo="1" devices="tripinfo_car_10838_R" vType="car8@car_10838_R" speedFactor="1.00" vaporized=""/>
    <tripinfo id="car_3656_L" depart="24.80" departLane="002_001_3_0" departPos="8.10" departSpeed="11.18" departDelay="8.80" arrival="100.20" arrivalLane="002_000_2_0" arrivalPos="400.00" arrivalSpeed="11.18" duration="75.40" routeLength="806.09" waitingTime="1.00" waitingCount="1" stopTime="0.00" timeLoss="-3440.31" rerouteNo="1" devices="tripinfo_car_3656_L" vType="car8@car_3656_L" speedFactor="1.02" vaporized=""/>
    <tripinfo id="car_10_R" depart="28.80" departLane="001_001_1_0" departPos="7.10" departSpeed="11.18" departDelay="1.80" arrival="100.60" arrivalLane="001_000_2_0" arrivalPos="400.00" arrivalSpeed="11.18" duration="71.80" routeLength="801.93" waitingTime="0.00" waitingCount="0" stopTime="0.00" timeLoss="-4.72" rerouteNo="1" devices="tripinfo_car_10_R" vType="car7@car_10_R" speedFactor="1.03" vaporized=""/>
    <tripinfo id="car_5461_L" depart="27.80" departLane="001_001_4_0" departPos="6.10" departSpeed="11.18" departDelay="0.80" arrival="101.00" arrivalLane="000_001_3_0" arrivalPos="400.00" arrivalSpeed="11.18" duration="73.20" routeLength="808.09" waitingTime="0.00" waitingCount="0" stopTime="0.00" timeLoss="-5.86" rerouteNo="1" devices="tripinfo_car_5461_L" vType="car6@car_5461_L" speedFactor="1.07" vaporized=""/>
    <tripinfo id="car_9062_L" depart="28.00" departLane="002_002_2_0" departPos="9.10" departSpeed="11.18" departDelay="3.00" arrival="101.40" arrivalLane="003_002_1_0" arrivalPos="400.00" arrivalSpeed="11.18" duration="73.40" routeLength="805.09" waitingTime="0.40" waitingCount="1" stopTime="0.00" timeLoss="-3105.20" rerouteNo="1" devices="tripinfo_car_9062_L" vType="car9@car_9062_L" speedFactor="1.10" vaporized=""/>
    <tripinfo id="car_1885_R" depart="31.00" departLane="001_002_2_0" departPos="7.10" departSpeed="11.18" departDelay="3.00" arrival="104.20" arrivalLane="000_002_3_0" arrivalPos="400.00" arrivalSpeed="11.18" duration="73.20" routeLength="801.93" waitingTime="0.00" waitingCount="0" stopTime="0.00" timeLoss="-3.30" rerouteNo="1" devices="tripinfo_car_1885_R" vType="car7@car_1885_R" speedFactor="1.10" vaporized=""/>
    <tripinfo id="car_12_R" depart="32.20" departLane="001_001_1_0" departPos="5.10" departSpeed="11.18" departDelay="2.20" arrival="104.20" arrivalLane="001_000_2_0" arrivalPos="400.00" arrivalSpeed="11.18" duration="72.00" routeLength="803.93" waitingTime="0.00" waitingCount="0" stopTime="0.00" timeLoss="-4.68" rerouteNo="1" devices="tripinfo_car_12_R" vType="car5@car_12_R" speedFactor="1.07" vaporized=""/>
    <tripinfo id="car_7236_L" depart="30.00" departLane="001_002_1_0" departPos="9.10" departSpeed="11.18" departDelay="0.00" arrival="104.80" arrivalLane="001_003_4_0" arrivalPos="400.00" arrivalSpeed="11.18" duration="74.80" routeLength="805.09" waitingTime="1.60" waitingCount="1" stopTime="0.00" timeLoss="-3585.37" rerouteNo="1" devices="tripinfo_car_7236_L" vType="car9@car_7236_L" speedFactor="1.15" vaporized=""/>
    <tripinfo id="car_13_R" depart="34.20" departLane="001_001_1_0" departPos="9.10" departSpeed="11.18" departDelay="3.20" arrival="105.80" arrivalLane="001_000_2_0" arrivalPos="400.00" arrivalSpeed="11.18" duration="71.60" routeLength="799.93" waitingTime="0.00" waitingCount="0" stopTime="0.00" timeLoss="-4.89" rerouteNo="1" devices="tripinfo_car_13_R" vType="car9@car_13_R" speedFactor="1.00" vaporized=""/>
    <tripinfo id="car_12664_R" depart="32.40" departLane="002_001_4_0" departPos="8.10" departSpeed="11.18" departDelay="2.40" arrival="107.80" arrivalLane="003_001_1_0" arrivalPos="400.00" arrivalSpeed="11.18" duration="75.40" routeLength="800.93" waitingTime="1.80" waitingCount="1" stopTime="0.00" timeLoss="-1.16" rerouteNo="1" devices="tripinfo_car_12664_R" vType="car8@car_12664_R" speedFactor="1.00" vaporized=""/>
    <tripinfo id="car_1887_R" depart="34.60" departLane="001_002_2_0" departPos="7.10" departSpeed="11.18" departDelay="4.60" arrival="108.20" arrivalLane="000_002_3_0" arrivalPos="400.00" arrivalSpeed="11.18" duration="73.60" routeLength="801.93" waitingTime="0.60" waitingCount="1" stopTime="0.00" timeLoss="-2.97" rerouteNo="1" devices="tripinfo_car_1887_R" vType="car7@car_1887_R" speedFactor="1.03" vaporized=""/>
    <tripinfo id="car_7226_RS" depart="0.00" departLane="001_002_1_0" departPos="5.10" departSpeed="11.18" departDelay="0.00" arrival="108.60" arrivalLane="000_001_3_0" arrivalPos="400.00" arrivalSpeed="11.18" duration="108.60" routeLength="1212.96" waitingTime="0.00" waitingCount="0" stopTime="0.00" timeLoss="-5.28" rerouteNo="2" devices="tripinfo_car_7226_RS" vType="car5@car_7226_RS" speedFactor="1.01" vaporized=""/>
    <tripinfo id="car_3660_L" depart="32.60" departLane="002_001_3_0" departPos="9.10" departSpeed="11.18" departDelay="8.60" arrival="110.00" arrivalLane="002_000_2_0" arrivalPos="400.00" arrivalSpeed="11.18" duration="77.40" routeLength="805.09" waitingTime="2.40" waitingCount="2" stopTime="0.00" timeLoss="0.77" rerouteNo="1" devices="tripinfo_car_3660_L" vType="car9@car_3660_L" speedFactor="1.09" vaporized=""/>
    <tripinfo id="car_10843_R" depart="36.00" departLane="002_002_3_0" departPos="9.10" departSpeed="11.18" departDelay="0.00" arrival="111.40" arrivalLane="002_003_4_0" arrivalPos="400.00" arrivalSpeed="11.18" duration="75.40" routeLength="799.93" waitingTime="1.60" waitingCount="1" stopTime="0.00" timeLoss="-1.04" rerouteNo="1" devices="tripinfo_car_10843_R" vType="car9@car_10843_R" speedFactor="1.11" vaporized=""/>
    <tripinfo id="car_10827_SS" depart="1.00" departLane="002_002_3_0" departPos="6.10" departSpeed="11.18" departDelay="0.00" arrival="111.80" arrivalLane="000_002_3_0" arrivalPos="400.00" arrivalSpeed="11.18" duration="110.80" routeLength="1222.70" waitingTime="0.20" waitingCount="1" stopTime="0.00" timeLoss="-4550.70" rerouteNo="2" devices="tripinfo_car_10827_SS" vType="car6@car_10827_SS" speedFactor="1.01" vaporized=""/>
    <tripinfo id="car_9052_SS" depart="0.00" departLane="002_002_2_0" departPos="8.10" departSpeed="11.18" departDelay="0.00" arrival="112.00" arrivalLane="002_000_2_0" arrivalPos="400.00" arrivalSpeed="11.18" duration="112.00" routeLength="1220.70" waitingTime="2.00" waitingCount="1" stopTime="0.00" timeLoss="-2863.17" rerouteNo="2" devices="tripinfo_car_9052_SS" vType="car8@car_9052_SS" speedFactor="1.06" vaporized=""/>
    <tripinfo id="car_9066_L" depart="35.40" departLane="002_002_2_0" departPos="7.10" departSpeed="11.18" departDelay="5.40" arrival="112.20" arrivalLane="003_002_1_0" arrivalPos="400.00" arrivalSpeed="11.18" duration="76.80" routeLength="807.09" waitingTime="2.60" waitingCount="2" stopTime="0.00" timeLoss="-4242.02" rerouteNo="1" devices="tripinfo_car_9066_L" vType="car7@car_9066_L" speedFactor="1.00" vaporized=""/>
    <tripinfo id="car_1869_SLS" depart="1.80" departLane="001_002_2_0" departPos="7.10" departSpeed="11.18" departDelay="0.80" arrival="113.20" arrivalLane="001_000_2_0" arrivalPos="400.00" arrivalSpeed="11.18" duration="111.40" routeLength="1221.70" waitingTime="0.40" waitingCount="1" stopTime="0.00" timeLoss="-6630.02" rerouteNo="2" devices="tripinfo_car_1869_SLS" vType="car7@car_1869_SLS" speedFactor="1.03" vaporized=""/>
    <tripinfo id="car_1889_R" depart="38.60" departLane="001_002_2_0" departPos="8.10" departSpeed="11.18" departDelay="6.60" arrival="113.20" arrivalLane="000_002_3_0" arrivalPos="400.00" arrivalSpeed="11.18" duration="74.60" routeLength="800.93" waitingTime="1.40" waitingCount="1" stopTime="0.00" timeLoss="-2916.15" rerouteNo="1" devices="tripinfo_car_1889_R" vType="car8@car_1889_R" speedFactor="1.03" vaporized=""/>
    <tripinfo id="car_9067_L" depart="37.00" departLane="002_002_2_0" departPos="5.10" departSpeed="11.18" departDelay="2.00" arrival="113.40" arrivalLane="003_002_1_0" arrivalPos="400.00" arrivalSpeed="11.18" duration="76.40" routeLength="809.09" waitingTime="1.40" waitingCount="2" stopTime="0.00" timeLoss="-1.02" rerouteNo="1" devices="tripinfo_car_9067_L" vType="car5@car_9067_L" speedFactor="1.00" vaporized=""/>
    <tripinfo id="car_5450_RS" depart="1.00" departLane="001_001_4_0" departPos="5.10" departSpeed="11.18" departDelay="0.00" arrival="113.60" arrivalLane="002_000_2_0" arrivalPos="400.00" arrivalSpeed="11.18" duration="112.60" routeLength="1212.96" waitingTime="3.20" waitingCount="1" stopTime="0.00" timeLoss="-3096.40" rerouteNo="2" devices="tripinfo_car_5450_RS" vType="car5@car_5450_RS" speedFactor="1.00" vaporized=""/>
    <tripinfo id="car_7228_RS" depart="4.00" departLane="001_002_1_0" departPos="7.10" departSpeed="11.18" departDelay="0.00" arrival="113.80" arrivalLane="000_001_3_0" arrivalPos="400.00" arrivalSpeed="11.18" duration="109.80" routeLength="1210.96" waitingTime="0.00" waitingCount="0" stopTime="0.00" timeLoss="-13.28" rerouteNo="2" devices="tripinfo_car_7228_RS" vType="car7@car_7228_RS" speedFactor="1.00" vaporized=""/>
    <tripinfo id="car_12667_R" depart="39.80" departLane="002_001_4_0" departPos="8.10" departSpeed="11.18" departDelay="2.80" arrival="114.20" arrivalLane="003_001_1_0" arrivalPos="400.00" arrivalSpeed="11.18" duration="74.40" routeLength="800.93" waitingTime="1.00" waitingCount="1" stopTime="0.00" timeLoss="-2.07" rerouteNo="1" devices="tripinfo_car_12667_R" vType="car8@car_12667_R" speedFactor="1.08" vaporized=""/>
    <tripinfo id="car_10828_SS" depart="3.00" departLane="002_002_3_0" departPos="5.10" departSpeed="11.18" departDelay="0.00" arrival="115.00" arrivalLane="000_002_3_0" arrivalPos="400.00" arrivalSpeed="11.18" duration="112.00" routeLength="1223.70" waitingTime="1.20" waitingCount="1" stopTime="0.00" timeLoss="-3619.01" rerouteNo="2" devices="tripinfo_car_10828_SS" vType="car5@car_10828_SS" speedFactor="1.09" vaporized=""/>
    <tripinfo id="car_7227_SL" depart="1.60" departLane="001_002_1_0" departPos="5.10" departSpeed="11.18" departDelay="0.60" arrival="115.20" arrivalLane="003_002_1_0" arrivalPos="400.00" arrivalSpeed="11.18" duration="113.60" routeLength="1223.70" waitingTime="3.20" waitingCount="1" stopTime="0.00" timeLoss="-3587.54" rerouteNo="2" devices="tripinfo_car_7227_SL" vType="car5@car_7227_SL" speedFactor="1.08" vaporized=""/>
    <tripinfo id="car_3663_L" depart="38.00" departLane="002_001_3_0" departPos="7.10" departSpeed="11.18" departDelay="9.00" arrival="115.40" arrivalLane="002_000_2_0" arrivalPos="400.00" arrivalSpeed="11.18" duration="77.40" routeLength="807.09" waitingTime="2.20" waitingCount="2" stopTime="0.00" timeLoss="0.46" rerouteNo="1" devices="tripinfo_car_3663_L" vType="car7@car_3663_L" speedFactor="1.10" vaporized=""/>
    <tripinfo id="car_12668_R" depart="41.80" departLane="002_001_4_0" departPos="9.10" departSpeed="11.18" departDelay="3.80" arrival="115.60" arrivalLane="003_001_1_0" arrivalPos="400.00" arrivalSpeed="11.18" duration="73.80" routeLength="799.93" waitingTime="0.20" waitingCount="1" stopTime="0.00" timeLoss="-2.82" rerouteNo="1" devices="tripinfo_car_12668_R" vType="car9@car_12668_R" speedFactor="1.12" vaporized=""/>
    <tripinfo id="car_10845_R" depart="39.80" departLane="002_002_3_0" departPos="6.10" departSpeed="11.18" departDelay="0.80" arrival="115.80" arrivalLane="002_003_4_0" arrivalPos="400.00" arrivalSpeed="11.18" duration="76.00" routeLength="802.93" waitingTime="1.80" waitingCount="1" stopTime="0.00" timeLoss="-0.58" rerouteNo="1" devices="tripinfo_car_10845_R" vType="car6@car_10845_R" speedFactor="1.12" vaporized=""/>
    <tripinfo id="car_5466_L" depart="41.60" departLane="001_001_4_0" departPos="9.10" departSpeed="11.18" departDelay="3.60" arrival="116.40" arrivalLane="000_001_3_0" arrivalPos="400.00" arrivalSpeed="11.18" duration="74.80" routeLength="805.09" waitingTime="0.80" waitingCount="1" stopTime="0.00" timeLoss="-3277.41" rerouteNo="1" devices="tripinfo_car_5466_L" vType="car9@car_5466_L" speedFactor="1.06" vaporized=""/>
    <tripinfo id="car_1891_R" depart="42.60" departLane="001_002_2_0" departPos="8.10" departSpeed="11.18" departDelay="6.60" arrival="117.20" arrivalLane="000_002_3_0" arrivalPos="400.00" arrivalSpeed="11.18" duration="74.60" routeLength="800.93" waitingTime="1.00" waitingCount="1" stopTime="0.00" timeLoss="-2.04" rerouteNo="1" devices="tripinfo_car_1891_R" vType="car8@car_1891_R" speedFactor="1.00" vaporized=""/>
    <tripinfo id="car_12649_SR" depart="4.00" departLane="002_001_4_0" departPos="8.10" departSpeed="11.18" departDelay="0.00" arrival="117.40" arrivalLane="002_003_4_0" arrivalPos="400.00" arrivalSpeed="11.18" duration="113.40" routeLength="1220.70" waitingTime="3.40" waitingCount="1" stopTime="0.00" timeLoss="-2863.17" rerouteNo="2" devices="tripinfo_car_12649_SR" vType="car8@car_12649_SR" speedFactor="1.09" vaporized=""/>
    <tripinfo id="car_0_SR" depart="3.00" departLane="001_001_1_0" departPos="8.10" departSpeed="11.18" departDelay="0.00" arrival="117.60" arrivalLane="003_001_1_0" arrivalPos="400.00" arrivalSpeed="11.18" duration="114.60" routeLength="1220.70" waitingTime="2.80" waitingCount="2" stopTime="0.00" timeLoss="-7712.80" rerouteNo="2" devices="tripinfo_car_0_SR" vType="car8@car_0_SR" speedFactor="1.00" vaporized=""/>
    <tripinfo id="car_3645_RS" depart="5.00" departLane="002_001_3_0" departPos="6.10" departSpeed="11.18" departDelay="0.00" arrival="118.00" arrivalLane="003_002_1_0" arrivalPos="400.00" arrivalSpeed="11.18" duration="113.00" routeLength="1211.96" waitingTime="3.00" waitingCount="1" stopTime="0.00" timeLoss="-11.96" rerouteNo="2" devices="tripinfo_car_3645_RS" vType="car6@car_3645_RS" speedFactor="1.00" vaporized=""/>
    <tripinfo id="car_7242_L" depart="40.80" departLane="001_002_1_0" departPos="5.10" departSpeed="11.18" departDelay="2.80" arrival="118.00" arrivalLane="001_003_4_0" arrivalPos="400.00" arrivalSpeed="11.18" duration="77.20" routeLength="809.09" waitingTime="3.20" waitingCount="1" stopTime="0.00" timeLoss="-2942.64" rerouteNo="1" devices="tripinfo_car_7242_L" vType="car5@car_7242_L" speedFactor="1.02" vaporized=""/>
    <tripinfo id="car_5452_RS" depart="4.60" departLane="001_001_4_0" departPos="7.10" departSpeed="11.18" departDelay="1.60" arrival="118.20" arrivalLane="002_000_2_0" arrivalPos="400.00" arrivalSpeed="11.18" duration="113.60" routeLength="1210.96" waitingTime="3.20" waitingCount="2" stopTime="0.00" timeLoss="-3103.02" rerouteNo="2" devices="tripinfo_car_5452_RS" vType="car7@car_5452_RS" speedFactor="1.05" vaporized=""/>
    <tripinfo id="car_7229_RLS" depart="6.00" departLane="001_002_1_0" departPos="9.10" departSpeed="11.18" departDelay="1.00" arrival="118.40" arrivalLane="000_001_3_0" arrivalPos="400.00" arrivalSpeed="11.18" duration="112.40" routeLength="1208.96" waitingTime="2.60" waitingCount="1" stopTime="0.00" timeLoss="-3392.50" rerouteNo="2" devices="tripinfo_car_7229_RLS" vType="car9@car_7229_RLS" speedFactor="1.00" vaporized=""/>
    <tripinfo id="car_12669_R" depart="43.60" departLane="002_001_4_0" departPos="6.10" departSpeed="11.18" departDelay="2.60" arrival="119.00" arrivalLane="003_001_1_0" arrivalPos="400.00" arrivalSpeed="11.18" duration="75.40" routeLength="802.93" waitingTime="1.40" waitingCount="1" stopTime="0.00" timeLoss="-4749.42" rerouteNo="1" devices="tripinfo_car_12669_R" vType="car6@car_12669_R" speedFactor="1.05" vaporized=""/>
    <tripinfo id="car_5453_RR" depart="6.60" departLane="001_001_4_0" departPos="8.10" departSpeed="11.18" departDelay="3.60" arrival="119.40" arrivalLane="002_000_2_0" arrivalPos="400.00" arrivalSpeed="11.18" duration="112.80" routeLength="1209.96" waitingTime="1.60" waitingCount="2" stopTime="0.00" timeLoss="-1.29" rerouteNo="2" devices="tripinfo_car_5453_RR" vType="car8@car_5453_RR" speedFactor="1.00" vaporized=""/>
    <tripinfo id="car_9053_RR" depart="4.00" departLane="002_002_2_0" departPos="9.10" departSpeed="11.18" departDelay="0.00" arrival="119.60" arrivalLane="001_003_4_0" arrivalPos="400.00" arrivalSpeed="11.18" duration="115.60" routeLength="1208.96" waitingTime="4.60" waitingCount="3" stopTime="0.00" timeLoss="-6924.42" rerouteNo="2" devices="tripinfo_car_9053_RR" vType="car9@car_9053_RR" speedFactor="1.16" vaporized=""/>