<?xml version="1.0" encoding="UTF-8"?>

<!-- generated on 03/23/20 03:48:31 by Eclipse SUMO GUI Version 1.3.1
<configuration xmlns:xsi="http://www.w3.org/2001/XMLSchema-instance" xsi:noNamespaceSchemaLocation="http://sumo.dlr.de/xsd/sumoConfiguration.xsd">

    <input>
        <net-file value="data/lane3.net.xml"/>
        <route-files value="data/icacc+.rou.xml"/>
        <additional-files value="data/icacc+.det.xml"/>
    </input>

    <output>
        <tripinfo-output value="tripinfo.xml"/>
    </output>

    <time>
        <begin value="0"/>
        <step-length value="0.1"/>
    </time>

    <processing>
        <collision.mingap-factor value="0"/>
    </processing>

    <report>
        <verbose value="true"/>
        <no-step-log value="true"/>
    </report>

    <traci_server>
        <remote-port value="1418"/>
    </traci_server>

    <gui_only>
        <quit-on-end value="true"/>
        <start value="true"/>
        <tracker-interval value="0.1"/>
    </gui_only>

</configuration>
-->

<tripinfos xmlns:xsi="http://www.w3.org/2001/XMLSchema-instance" xsi:noNamespaceSchemaLocation="http://sumo.dlr.de/xsd/tripinfo_file.xsd">
    <tripinfo id="R_1" depart="0.00" departLane="2_1" departPos="7.10" departSpeed="0.00" departDelay="0.00" arrival="35.70" arrivalLane="-1_0" arrivalPos="200.00" arrivalSpeed="11.18" duration="35.70" routeLength="398.06" waitingTime="0.00" waitingCount="0" stopTime="0.00" timeLoss="-2.66" rerouteNo="0" devices="tripinfo_R_1" vType="car7@R_1" speedFactor="0.94" vaporized=""/>
    <tripinfo id="S_0" depart="0.00" departLane="1_2" departPos="8.10" departSpeed="0.00" departDelay="0.00" arrival="37.10" arrivalLane="-3_2" arrivalPos="200.00" arrivalSpeed="11.18" duration="37.10" routeLength="414.30" waitingTime="0.00" waitingCount="0" stopTime="0.00" timeLoss="0.01" rerouteNo="0" devices="tripinfo_S_0" vType="car8@S_0" speedFactor="1.06" vaporized=""/>
    <tripinfo id="L_3" depart="1.00" departLane="2_2" departPos="5.10" departSpeed="0.00" departDelay="0.00" arrival="38.30" arrivalLane="-3_2" arrivalPos="200.00" arrivalSpeed="11.18" duration="37.30" routeLength="414.45" waitingTime="0.00" waitingCount="0" stopTime="0.00" timeLoss="-2.10" rerouteNo="0" devices="tripinfo_L_3" vType="car5@L_3" speedFactor="1.08" vaporized=""/>
    <tripinfo id="L_6" depart="2.00" departLane="4_0" departPos="7.10" departSpeed="0.00" departDelay="0.00" arrival="39.20" arrivalLane="-1_2" arrivalPos="200.00" arrivalSpeed="11.18" duration="37.20" routeLength="412.45" waitingTime="0.00" waitingCount="0" stopTime="0.00" timeLoss="-2.17" rerouteNo="0" devices="tripinfo_L_6" vType="car7@L_6" speedFactor="1.05" vaporized=""/>
    <tripinfo id="L_4" depart="1.00" departLane="3_2" departPos="6.10" departSpeed="0.00" departDelay="0.00" arrival="40.40" arrivalLane="-4_2" arrivalPos="200.00" arrivalSpeed="11.18" duration="39.40" routeLength="413.45" waitingTime="1.30" waitingCount="1" stopTime="0.00" timeLoss="-4297.78" rerouteNo="0" devices="tripinfo_L_4" vType="car6@L_4" speedFactor="1.03" vaporized=""/>
    <tripinfo id="R_13" depart="5.00" departLane="2_2" departPos="8.10" departSpeed="0.00" departDelay="0.00" arrival="41.20" arrivalLane="-1_0" arrivalPos="200.00" arrivalSpeed="11.18" duration="36.20" routeLength="397.06" waitingTime="0.10" waitingCount="1" stopTime="0.00" timeLoss="-1.91" rerouteNo="0" devices="tripinfo_R_13" vType="car8@R_13" speedFactor="1.12" vaporized=""/>
    <tripinfo id="S_7" depart="3.00" departLane="1_0" departPos="7.10" departSpeed="0.00" departDelay="0.00" arrival="41.30" arrivalLane="-3_2" arrivalPos="200.00" arrivalSpeed="11.18" duration="38.30" routeLength="415.30" waitingTime="0.20" waitingCount="1" stopTime="0.00" timeLoss="-4405.60" rerouteNo="0" devices="tripinfo_S_7" vType="car7@S_7" speedFactor="0.89" vaporized=""/>
    <tripinfo id="S_9" depart="3.00" departLane="3_1" departPos="6.10" departSpeed="0.00" departDelay="0.00" arrival="41.70" arrivalLane="-1_2" arrivalPos="200.00" arrivalSpeed="11.18" duration="38.70" routeLength="416.30" waitingTime="0.00" waitingCount="0" stopTime="0.00" timeLoss="1.44" rerouteNo="0" devices="tripinfo_S_9" vType="car6@S_9" speedFactor="0.86" vaporized=""/>
    <tripinfo id="R_15" depart="6.00" departLane="1_1" departPos="5.10" departSpeed="0.00" departDelay="0.00" arrival="42.00" arrivalLane="-4_0" arrivalPos="200.00" arrivalSpeed="11.18" duration="36.00" routeLength="400.06" waitingTime="0.00" waitingCount="0" stopTime="0.00" timeLoss="-2.58" rerouteNo="0" devices="tripinfo_R_15" vType="car5@R_15" speedFactor="0.93" vaporized=""/>
    <tripinfo id="S_10" depart="3.00" departLane="4_2" departPos="7.10" departSpeed="0.00" departDelay="0.00" arrival="42.60" arrivalLane="-2_2" arrivalPos="200.00" arrivalSpeed="11.18" duration="39.60" routeLength="415.30" waitingTime="0.00" waitingCount="0" stopTime="0.00" timeLoss="2.31" rerouteNo="0" devices="tripinfo_S_10" vType="car7@S_10" speedFactor="1.09" vaporized=""/>
    <tripinfo id="R_20" depart="7.00" departLane="4_0" departPos="8.10" departSpeed="0.00" departDelay="0.00" arrival="42.60" arrivalLane="-3_0" arrivalPos="200.00" arrivalSpeed="11.18" duration="35.60" routeLength="397.06" waitingTime="0.00" waitingCount="0" stopTime="0.00" timeLoss="-2.66" rerouteNo="0" devices="tripinfo_R_20" vType="car8@R_20" speedFactor="1.02" vaporized=""/>
    <tripinfo id="S_8" depart="3.00" departLane="2_0" departPos="6.10" departSpeed="0.00" departDelay="0.00" arrival="42.70" arrivalLane="-4_2" arrivalPos="200.00" arrivalSpeed="11.18" duration="39.70" routeLength="416.30" waitingTime="1.40" waitingCount="1" stopTime="0.00" timeLoss="-4208.01" rerouteNo="0" devices="tripinfo_S_8" vType="car6@S_8" speedFactor="0.94" vaporized=""/>
    <tripinfo id="L_14" depart="5.00" departLane="3_1" departPos="9.10" departSpeed="0.00" departDelay="0.00" arrival="43.50" arrivalLane="-4_2" arrivalPos="200.00" arrivalSpeed="11.18" duration="38.50" routeLength="410.45" waitingTime="0.00" waitingCount="0" stopTime="0.00" timeLoss="-1.31" rerouteNo="0" devices="tripinfo_L_14" vType="car9@L_14" speedFactor="0.99" vaporized=""/>
    <tripinfo id="R_11" depart="4.20" departLane="2_2" departPos="9.10" departSpeed="0.00" departDelay="0.20" arrival="44.30" arrivalLane="-1_0" arrivalPos="200.00" arrivalSpeed="11.18" duration="40.10" routeLength="396.06" waitingTime="0.10" waitingCount="1" stopTime="0.00" timeLoss="1.94" rerouteNo="0" devices="tripinfo_R_11" vType="car9@R_11" speedFactor="1.03" vaporized=""/>
    <tripinfo id="L_5" depart="2.00" departLane="2_0" departPos="7.10" departSpeed="0.00" departDelay="0.00" arrival="44.50" arrivalLane="-3_2" arrivalPos="200.00" arrivalSpeed="11.18" duration="42.50" routeLength="412.45" waitingTime="0.00" waitingCount="0" stopTime="0.00" timeLoss="-0.96" rerouteNo="0" devices="tripinfo_L_5" vType="car7@L_5" speedFactor="0.83" vaporized=""/>
    <tripinfo id="L_2" depart="1.00" departLane="1_0" departPos="9.10" departSpeed="0.00" departDelay="0.00" arrival="44.70" arrivalLane="-2_2" arrivalPos="200.00" arrivalSpeed="11.18" duration="43.70" routeLength="410.45" waitingTime="0.90" waitingCount="2" stopTime="0.00" timeLoss="-4020.08" rerouteNo="0" devices="tripinfo_L_2" vType="car9@L_2" speedFactor="1.01" vaporized=""/>
    <tripinfo id="R_24" depart="9.00" departLane="1_2" departPos="7.10" departSpeed="0.00" departDelay="0.00" arrival="45.00" arrivalLane="-4_0" arrivalPos="200.00" arrivalSpeed="11.18" duration="36.00" routeLength="398.06" waitingTime="0.00" waitingCount="0" stopTime="0.00" timeLoss="-2.56" rerouteNo="0" devices="tripinfo_R_24" vType="car7@R_24" speedFactor="0.83" vaporized=""/>
    <tripinfo id="R_23" depart="8.00" departLane="4_2" departPos="6.10" departSpeed="0.00" departDelay="0.00" arrival="45.70" arrivalLane="-3_0" arrivalPos="200.00" arrivalSpeed="11.18" duration="37.70" routeLength="399.06" waitingTime="0.00" waitingCount="0" stopTime="0.00" timeLoss="-0.86" rerouteNo="0" devices="tripinfo_R_23" vType="car6@R_23" speedFactor="0.89" vaporized=""/>
    <tripinfo id="L_18" depart="7.00" departLane="1_1" departPos="7.10" departSpeed="0.00" departDelay="0.00" arrival="46.10" arrivalLane="-2_2" arrivalPos="200.00" arrivalSpeed="11.18" duration="39.10" routeLength="412.45" waitingTime="0.00" waitingCount="0" stopTime="0.00" timeLoss="-0.46" rerouteNo="0" devices="tripinfo_L_18" vType="car7@L_18" speedFactor="0.94" vaporized=""/>
    <tripinfo id="R_21" depart="8.00" departLane="2_1" departPos="5.10" departSpeed="0.00" departDelay="0.00" arrival="46.40" arrivalLane="-1_0" arrivalPos="200.00" arrivalSpeed="11.18" duration="38.40" routeLength="400.06" waitingTime="0.00" waitingCount="0" stopTime="0.00" timeLoss="-0.13" rerouteNo="0" devices="tripinfo_R_21" vType="car5@R_21" speedFactor="1.01" vaporized=""/>
    <tripinfo id="L_19" depart="7.00" departLane="3_1" departPos="7.10" departSpeed="0.00" departDelay="0.00" arrival="46.70" arrivalLane="-4_2" arrivalPos="200.00" arrivalSpeed="11.18" duration="39.70" routeLength="412.45" waitingTime="0.60" waitingCount="1" stopTime="0.00" timeLoss="-4106.72" rerouteNo="0" devices="tripinfo_L_19" vType="car7@L_19" speedFactor="1.16" vaporized=""/>
    <tripinfo id="R_32" depart="12.00" departLane="3_1" departPos="9.10" departSpeed="0.00" departDelay="0.00" arrival="47.60" arrivalLane="-2_0" arrivalPos="200.00" arrivalSpeed="11.18" duration="35.60" routeLength="396.06" waitingTime="0.00" waitingCount="0" stopTime="0.00" timeLoss="-2.58" rerouteNo="0" devices="tripinfo_R_32" vType="car9@R_32" speedFactor="1.01" vaporized=""/>
    <tripinfo id="S_16" depart="6.00" departLane="2_2" departPos="7.10" departSpeed="0.00" departDelay="0.00" arrival="48.00" arrivalLane="-4_2" arrivalPos="200.00" arrivalSpeed="11.18" duration="42.00" routeLength="415.30" waitingTime="1.50" waitingCount="1" stopTime="0.00" timeLoss="-4314.29" rerouteNo="0" devices="tripinfo_S_16" vType="car7@S_16" speedFactor="0.88" vaporized=""/>
    <tripinfo id="R_29" depart="11.00" departLane="2_1" departPos="7.10" departSpeed="0.00" departDelay="0.00" arrival="49.10" arrivalLane="-1_0" arrivalPos="200.00" arrivalSpeed="11.18" duration="38.10" routeLength="398.06" waitingTime="0.10" waitingCount="1" stopTime="0.00" timeLoss="-0.26" rerouteNo="0" devices="tripinfo_R_29" vType="car7@R_29" speedFactor="0.93" vaporized=""/>
    <tripinfo id="L_27" depart="10.00" departLane="4_1" departPos="7.10" departSpeed="0.00" departDelay="0.00" arrival="49.80" arrivalLane="-1_2" arrivalPos="200.00" arrivalSpeed="11.18" duration="39.80" routeLength="412.45" waitingTime="1.80" waitingCount="1" stopTime="0.00" timeLoss="-4407.97" rerouteNo="0" devices="tripinfo_L_27" vType="car7@L_27" speedFactor="0.95" vaporized=""/>
    <tripinfo id="L_12" depart="4.00" departLane="3_0" departPos="8.10" departSpeed="0.00" departDelay="0.00" arrival="50.00" arrivalLane="-4_2" arrivalPos="200.00" arrivalSpeed="11.18" duration="46.00" routeLength="411.45" waitingTime="1.30" waitingCount="3" stopTime="0.00" timeLoss="-3999.99" rerouteNo="0" devices="tripinfo_L_12" vType="car8@L_12" speedFactor="1.05" vaporized=""/>
    <tripinfo id="R_25" depart="10.00" departLane="2_0" departPos="7.10" departSpeed="0.00" departDelay="1.00" arrival="51.00" arrivalLane="-1_0" arrivalPos="200.00" arrivalSpeed="11.18" duration="41.00" routeLength="398.06" waitingTime="0.30" waitingCount="2" stopTime="0.00" timeLoss="2.52" rerouteNo="0" devices="tripinfo_R_25" vType="car7@R_25" speedFactor="0.87" vaporized=""/>
    <tripinfo id="R_39" depart="15.00" departLane="3_1" departPos="7.10" departSpeed="0.00" departDelay="0.00" arrival="51.00" arrivalLane="-2_0" arrivalPos="200.00" arrivalSpeed="11.18" duration="36.00" routeLength="398.06" waitingTime="0.00" waitingCount="0" stopTime="0.00" timeLoss="-2.47" rerouteNo="0" devices="tripinfo_R_39" vType="car7@R_39" speedFactor="0.90" vaporized=""/>
    <tripinfo id="L_30" depart="11.00" departLane="3_1" departPos="7.10" departSpeed="0.00" departDelay="0.00" arrival="51.20" arrivalLane="-4_2" arrivalPos="200.00" arrivalSpeed="11.18" duration="40.20" routeLength="412.45" waitingTime="0.00" waitingCount="0" stopTime="0.00" timeLoss="0.91" rerouteNo="0" devices="tripinfo_L_30" vType="car7@L_30" speedFactor="1.18" vaporized=""/>
    <tripinfo id="R_34" depart="13.00" departLane="4_0" departPos="5.10" departSpeed="0.00" departDelay="0.00" arrival="51.20" arrivalLane="-3_0" arrivalPos="200.00" arrivalSpeed="11.18" duration="38.20" routeLength="400.06" waitingTime="0.00" waitingCount="0" stopTime="0.00" timeLoss="-0.28" rerouteNo="0" devices="tripinfo_R_34" vType="car5@R_34" speedFactor="0.99" vaporized=""/>
    <tripinfo id="L_28" depart="11.00" departLane="1_2" departPos="7.10" departSpeed="0.00" departDelay="0.00" arrival="52.00" arrivalLane="-2_2" arrivalPos="200.00" arrivalSpeed="11.18" duration="41.00" routeLength="412.45" waitingTime="0.60" waitingCount="1" stopTime="0.00" timeLoss="-4538.44" rerouteNo="0" devices="tripinfo_L_28" vType="car7@L_28" speedFactor="1.13" vaporized=""/>
    <tripinfo id="R_43" depart="17.00" departLane="1_2" departPos="8.10" departSpeed="0.00" departDelay="0.00" arrival="52.70" arrivalLane="-4_0" arrivalPos="200.00" arrivalSpeed="11.18" duration="35.70" routeLength="397.06" waitingTime="0.00" waitingCount="0" stopTime="0.00" timeLoss="-2.47" rerouteNo="0" devices="tripinfo_R_43" vType="car8@R_43" speedFactor="1.04" vaporized=""/>
    <tripinfo id="R_37" depart="14.80" departLane="4_0" departPos="6.10" departSpeed="0.00" departDelay="0.80" arrival="52.80" arrivalLane="-3_0" arrivalPos="200.00" arrivalSpeed="11.18" duration="38.00" routeLength="399.06" waitingTime="0.20" waitingCount="1" stopTime="0.00" timeLoss="-0.27" rerouteNo="0" devices="tripinfo_R_37" vType="car6@R_37" speedFactor="1.18" vaporized=""/>
    <tripinfo id="L_26" depart="9.00" departLane="4_2" departPos="9.10" departSpeed="0.00" departDelay="0.00" arrival="53.30" arrivalLane="-1_2" arrivalPos="200.00" arrivalSpeed="11.18" duration="44.30" routeLength="410.45" waitingTime="1.40" waitingCount="1" stopTime="0.00" timeLoss="-4834.24" rerouteNo="0" devices="tripinfo_L_26" vType="car9@L_26" speedFactor="0.92" vaporized=""/>
    <tripinfo id="R_36" depart="14.00" departLane="3_0" departPos="5.10" departSpeed="0.00" departDelay="0.00" arrival="53.90" arrivalLane="-2_0" arrivalPos="200.00" arrivalSpeed="11.18" duration="39.90" routeLength="400.06" waitingTime="0.00" waitingCount="0" stopTime="0.00" timeLoss="1.37" rerouteNo="0" devices="tripinfo_R_36" vType="car5@R_36" speedFactor="0.97" vaporized=""/>
    <tripinfo id="S_17" depart="6.00" departLane="3_1" departPos="8.10" departSpeed="0.00" departDelay="0.00" arrival="54.80" arrivalLane="-1_2" arrivalPos="200.00" arrivalSpeed="11.18" duration="48.80" routeLength="414.30" waitingTime="1.30" waitingCount="2" stopTime="0.00" timeLoss="-4480.10" rerouteNo="0" devices="tripinfo_S_17" vType="car8@S_17" speedFactor="0.94" vaporized=""/>
    <tripinfo id="L_35" depart="14.00" departLane="2_0" departPos="8.10" departSpeed="0.00" departDelay="0.00" arrival="55.20" arrivalLane="-3_2" arrivalPos="200.00" arrivalSpeed="11.18" duration="41.20" routeLength="411.45" waitingTime="3.20" waitingCount="1" stopTime="0.00" timeLoss="-4438.22" rerouteNo="0" devices="tripinfo_L_35" vType="car8@L_35" speedFactor="1.02" vaporized=""/>
    <tripinfo id="R_40" depart="17.20" departLane="4_0" departPos="9.10" departSpeed="0.00" departDelay="2.20" arrival="55.20" arrivalLane="-3_0" arrivalPos="200.00" arrivalSpeed="11.18" duration="38.00" routeLength="396.06" waitingTime="0.10" waitingCount="1" stopTime="0.00" timeLoss="-0.12" rerouteNo="0" devices="tripinfo_R_40" vType="car9@R_40" speedFactor="1.03" vaporized=""/>
    <tripinfo id="R_41" depart="16.00" departLane="1_0" departPos="8.10" departSpeed="0.00" departDelay="0.00" arrival="56.00" arrivalLane="-4_0" arrivalPos="200.00" arrivalSpeed="11.18" duration="40.00" routeLength="397.06" waitingTime="0.10" waitingCount="1" stopTime="0.00" timeLoss="1.73" rerouteNo="0" devices="tripinfo_R_41" vType="car8@R_41" speedFactor="0.96" vaporized=""/>
    <tripinfo id="S_31" depart="12.10" departLane="2_0" departPos="6.10" departSpeed="0.00" departDelay="0.10" arrival="56.40" arrivalLane="-4_2" arrivalPos="200.00" arrivalSpeed="11.18" duration="44.30" routeLength="416.30" waitingTime="0.10" waitingCount="1" stopTime="0.00" timeLoss="6.98" rerouteNo="0" devices="tripinfo_S_31" vType="car6@S_31" speedFactor="1.15" vaporized=""/>
    <tripinfo id="L_22" depart="11.20" departLane="3_2" departPos="8.10" departSpeed="0.00" departDelay="3.20" arrival="57.50" arrivalLane="-4_2" arrivalPos="200.00" arrivalSpeed="11.18" duration="46.30" routeLength="411.45" waitingTime="0.70" waitingCount="2" stopTime="0.00" timeLoss="-4128.92" rerouteNo="0" devices="tripinfo_L_22" vType="car8@L_22" speedFactor="0.98" vaporized=""/>
    <tripinfo id="L_38" depart="15.00" departLane="2_0" departPos="7.10" departSpeed="0.00" departDelay="0.00" arrival="57.70" arrivalLane="-3_2" arrivalPos="200.00" arrivalSpeed="11.18" duration="42.70" routeLength="412.45" waitingTime="0.00" waitingCount="0" stopTime="0.00" timeLoss="3.45" rerouteNo="0" devices="tripinfo_L_38" vType="car7@L_38" speedFactor="1.10" vaporized=""/>
    <tripinfo id="R_46" depart="18.00" departLane="1_1" departPos="6.10" departSpeed="0.00" departDelay="0.00" arrival="57.90" arrivalLane="-4_0" arrivalPos="200.00" arrivalSpeed="11.18" duration="39.90" routeLength="399.06" waitingTime="0.00" waitingCount="0" stopTime="0.00" timeLoss="1.51" rerouteNo="0" devices="tripinfo_R_46" vType="car6@R_46" speedFactor="1.00" vaporized=""/>
    <tripinfo id="R_51" depart="20.00" departLane="3_0" departPos="9.10" departSpeed="0.00" departDelay="0.00" arrival="57.90" arrivalLane="-2_0" arrivalPos="200.00" arrivalSpeed="11.18" duration="37.90" routeLength="396.06" waitingTime="0.00" waitingCount="0" stopTime="0.00" timeLoss="-0.14" rerouteNo="0" devices="tripinfo_R_51" vType="car9@R_51" speedFactor="1.17" vaporized=""/>
    <tripinfo id="S_45" depart="19.50" departLane="4_0" departPos="8.10" departSpeed="0.00" departDelay="2.50" arrival="59.70" arrivalLane="-2_2" arrivalPos="200.00" arrivalSpeed="11.18" duration="40.20" routeLength="414.30" waitingTime="1.90" waitingCount="2" stopTime="0.00" timeLoss="-4900.76" rerouteNo="0" devices="tripinfo_S_45" vType="car8@S_45" speedFactor="1.09" vaporized=""/>
    <tripinfo id="L_42" depart="16.00" departLane="3_0" departPos="5.10" departSpeed="0.00" departDelay="0.00" arrival="60.10" arrivalLane="-4_2" arrivalPos="200.00" arrivalSpeed="11.18" duration="44.10" routeLength="414.45" waitingTime="0.70" waitingCount="3" stopTime="0.00" timeLoss="-4789.46" rerouteNo="0" devices="tripinfo_L_42" vType="car5@L_42" speedFactor="1.09" vaporized=""/>
    <tripinfo id="L_48" depart="19.00" departLane="1_2" departPos="6.10" departSpeed="0.00" departDelay="0.00" arrival="60.80" arrivalLane="-2_2" arrivalPos="200.00" arrivalSpeed="11.18" duration="41.80" routeLength="413.45" waitingTime="1.30" waitingCount="1" stopTime="0.00" timeLoss="-4776.65" rerouteNo="0" devices="tripinfo_L_48" vType="car6@L_48" speedFactor="0.88" vaporized=""/>
    <tripinfo id="S_33" depart="14.60" departLane="3_2" departPos="8.10" departSpeed="0.00" departDelay="1.60" arrival="61.20" arrivalLane="-1_2" arrivalPos="200.00" arrivalSpeed="11.18" duration="46.60" routeLength="414.30" waitingTime="0.70" waitingCount="2" stopTime="0.00" timeLoss="9.52" rerouteNo="0" devices="tripinfo_S_33" vType="car8@S_33" speedFactor="1.17" vaporized=""/>
    <tripinfo id="L_44" depart="17.00" departLane="2_0" departPos="9.10" departSpeed="0.00" departDelay="0.00" arrival="62.90" arrivalLane="-3_2" arrivalPos="200.00" arrivalSpeed="11.18" duration="45.90" routeLength="410.45" waitingTime="2.80" waitingCount="1" stopTime="0.00" timeLoss="-4182.64" rerouteNo="0" devices="tripinfo_L_44" vType="car9@L_44" speedFactor="1.04" vaporized=""/>
    <tripinfo id="L_55" depart="22.00" departLane="1_1" departPos="6.10" departSpeed="0.00" departDelay="0.00" arrival="63.30" arrivalLane="-2_2" arrivalPos="200.00" arrivalSpeed="11.18" duration="41.30" routeLength="413.45" waitingTime="0.60" waitingCount="1" stopTime="0.00" timeLoss="-4923.75" rerouteNo="0" devices="tripinfo_L_55" vType="car6@L_55" speedFactor="1.00" vaporized=""/>
    <tripinfo id="S_58" depart="24.30" departLane="2_2" departPos="8.10" departSpeed="0.00" departDelay="0.30" arrival="63.70" arrivalLane="-4_0" arrivalPos="200.00" arrivalSpeed="11.18" duration="39.40" routeLength="414.30" waitingTime="1.10" waitingCount="2" stopTime="0.00" timeLoss="-4900.76" rerouteNo="0" devices="tripinfo_S_58" vType="car8@S_58" speedFactor="1.02" vaporized=""/>
    <tripinfo id="L_49" depart="19.60" departLane="4_0" departPos="5.10" departSpeed="0.00" departDelay="0.60" arrival="64.00" arrivalLane="-1_2" arrivalPos="200.00" arrivalSpeed="11.18" duration="44.40" routeLength="414.45" waitingTime="2.30" waitingCount="2" stopTime="0.00" timeLoss="-4239.91" rerouteNo="0" devices="tripinfo_L_49" vType="car5@L_49" speedFactor="0.85" vaporized=""/>
    <tripinfo id="L_57" depart="23.00" departLane="3_0" departPos="8.10" departSpeed="0.00" departDelay="0.00" arrival="65.30" arrivalLane="-4_2" arrivalPos="200.00" arrivalSpeed="11.18" duration="42.30" routeLength="411.45" waitingTime="1.20" waitingCount="1" stopTime="0.00" timeLoss="-4404.53" rerouteNo="0" devices="tripinfo_L_57" vType="car8@L_57" speedFactor="1.14" vaporized=""/>
    <tripinfo id="R_62" depart="25.00" departLane="4_1" departPos="6.10" departSpeed="0.00" departDelay="0.00" arrival="65.60" arrivalLane="-3_0" arrivalPos="200.00" arrivalSpeed="11.18" duration="40.60" routeLength="399.06" waitingTime="1.90" waitingCount="2" stopTime="0.00" timeLoss="2.18" rerouteNo="0" devices="tripinfo_R_62" vType="car6@R_62" speedFactor="1.02" vaporized=""/>
    <tripinfo id="S_54" depart="21.00" departLane="4_0" departPos="8.10" departSpeed="0.00" departDelay="0.00" arrival="66.00" arrivalLane="-2_0" arrivalPos="200.00" arrivalSpeed="11.18" duration="45.00" routeLength="414.30" waitingTime="4.60" waitingCount="1" stopTime="0.00" timeLoss="-4660.74" rerouteNo="0" devices="tripinfo_S_54" vType="car8@S_54" speedFactor="1.00" vaporized=""/>
    <tripinfo id="L_52" depart="21.00" departLane="2_1" departPos="6.10" departSpeed="0.00" departDelay="0.00" arrival="66.30" arrivalLane="-3_2" arrivalPos="200.00" arrivalSpeed="11.18" duration="45.30" routeLength="413.45" waitingTime="2.40" waitingCount="3" stopTime="0.00" timeLoss="-4846.93" rerouteNo="0" devices="tripinfo_L_52" vType="car6@L_52" speedFactor="1.02" vaporized=""/>
    <tripinfo id="L_60" depart="25.00" departLane="1_0" departPos="9.10" departSpeed="0.00" departDelay="0.00" arrival="66.30" arrivalLane="-2_2" arrivalPos="200.00" arrivalSpeed="11.18" duration="41.30" routeLength="410.45" waitingTime="0.70" waitingCount="1" stopTime="0.00" timeLoss="-3955.10" rerouteNo="0" devices="tripinfo_L_60" vType="car9@L_60" speedFactor="1.08" vaporized=""/>
    <tripinfo id="R_68" depart="28.00" departLane="4_2" departPos="7.10" departSpeed="0.00" departDelay="0.00" arrival="66.50" arrivalLane="-3_0" arrivalPos="200.00" arrivalSpeed="11.18" duration="38.50" routeLength="398.06" waitingTime="0.00" waitingCount="0" stopTime="0.00" timeLoss="0.25" rerouteNo="0" devices="tripinfo_R_68" vType="car7@R_68" speedFactor="1.04" vaporized=""/>
    <tripinfo id="R_59" depart="24.90" departLane="3_2" departPos="6.10" departSpeed="0.00" departDelay="0.90" arrival="67.10" arrivalLane="-2_0" arrivalPos="200.00" arrivalSpeed="11.18" duration="42.20" routeLength="399.06" waitingTime="3.20" waitingCount="2" stopTime="0.00" timeLoss="-4451.39" rerouteNo="0" devices="tripinfo_R_59" vType="car6@R_59" speedFactor="0.97" vaporized=""/>
    <tripinfo id="S_61" depart="25.00" departLane="2_2" departPos="8.10" departSpeed="0.00" departDelay="0.00" arrival="67.10" arrivalLane="-4_0" arrivalPos="200.00" arrivalSpeed="11.18" duration="42.10" routeLength="414.30" waitingTime="1.00" waitingCount="1" stopTime="0.00" timeLoss="-4193.86" rerouteNo="0" devices="tripinfo_S_61" vType="car8@S_61" speedFactor="1.12" vaporized=""/>
    <tripinfo id="S_56" depart="22.80" departLane="4_0" departPos="6.10" departSpeed="0.00" departDelay="0.80" arrival="67.80" arrivalLane="-2_2" arrivalPos="200.00" arrivalSpeed="11.18" duration="45.00" routeLength="416.30" waitingTime="2.00" waitingCount="2" stopTime="0.00" timeLoss="-4771.60" rerouteNo="0" devices="tripinfo_S_56" vType="car6@S_56" speedFactor="0.90" vaporized=""/>
    <tripinfo id="R_76" depart="31.00" departLane="3_1" departPos="5.10" departSpeed="0.00" departDelay="0.00" arrival="68.10" arrivalLane="-2_0" arrivalPos="200.00" arrivalSpeed="11.18" duration="37.10" routeLength="400.06" waitingTime="0.00" waitingCount="0" stopTime="0.00" timeLoss="-1.35" rerouteNo="0" devices="tripinfo_R_76" vType="car5@R_76" speedFactor="1.03" vaporized=""/>
    <tripinfo id="L_47" depart="18.00" departLane="3_0" departPos="9.10" departSpeed="0.00" departDelay="0.00" arrival="68.30" arrivalLane="-4_2" arrivalPos="200.00" arrivalSpeed="11.18" duration="50.30" routeLength="410.45" waitingTime="0.60" waitingCount="3" stopTime="0.00" timeLoss="-3892.73" rerouteNo="0" devices="tripinfo_L_47" vType="car9@L_47" speedFactor="0.90" vaporized=""/>
    <tripinfo id="L_50" depart="20.00" departLane="2_2" departPos="9.10" departSpeed="0.00" departDelay="0.00" arrival="69.50" arrivalLane="-3_2" arrivalPos="200.00" arrivalSpeed="11.18" duration="49.50" routeLength="410.45" waitingTime="1.90" waitingCount="5" stopTime="0.00" timeLoss="-4609.00" rerouteNo="0" devices="tripinfo_L_50" vType="car9@L_50" speedFactor="0.85" vaporized=""/>
    <tripinfo id="R_80" depart="32.00" departLane="4_0" departPos="8.10" departSpeed="0.00" departDelay="0.00" arrival="70.00" arrivalLane="-3_0" arrivalPos="200.00" arrivalSpeed="11.18" duration="38.00" routeLength="397.06" waitingTime="0.00" waitingCount="0" stopTime="0.00" timeLoss="-0.34" rerouteNo="0" devices="tripinfo_R_80" vType="car8@R_80" speedFactor="1.03" vaporized=""/>
    <tripinfo id="S_69" depart="30.30" departLane="1_2" departPos="9.10" departSpeed="0.00" departDelay="1.30" arrival="70.20" arrivalLane="-3_1" arrivalPos="200.00" arrivalSpeed="11.18" duration="39.90" routeLength="413.30" waitingTime="1.90" waitingCount="2" stopTime="0.00" timeLoss="-4651.34" rerouteNo="0" devices="tripinfo_S_69" vType="car9@S_69" speedFactor="1.02" vaporized=""/>
    <tripinfo id="R_70" depart="29.00" departLane="2_2" departPos="5.10" departSpeed="0.00" departDelay="0.00" arrival="70.70" arrivalLane="-1_0" arrivalPos="200.00" arrivalSpeed="11.18" duration="41.70" routeLength="400.06" waitingTime="0.10" waitingCount="1" stopTime="0.00" timeLoss="3.22" rerouteNo="0" devices="tripinfo_R_70" vType="car5@R_70" speedFactor="1.02" vaporized=""/>
    <tripinfo id="S_63" depart="27.00" departLane="1_1" departPos="5.10" departSpeed="0.00" departDelay="0.00" arrival="71.00" arrivalLane="-3_2" arrivalPos="200.00" arrivalSpeed="11.18" duration="44.00" routeLength="417.30" waitingTime="2.00" waitingCount="1" stopTime="0.00" timeLoss="-4442.43" rerouteNo="0" devices="tripinfo_S_63" vType="car5@S_63" speedFactor="0.99" vaporized=""/>
    <tripinfo id="S_66" depart="28.00" departLane="2_1" departPos="6.10" departSpeed="0.00" departDelay="0.00" arrival="71.10" arrivalLane="-4_0" arrivalPos="200.00" arrivalSpeed="11.18" duration="43.10" routeLength="416.30" waitingTime="1.90" waitingCount="1" stopTime="0.00" timeLoss="-4677.43" rerouteNo="0" devices="tripinfo_S_66" vType="car6@S_66" speedFactor="0.91" vaporized=""/>
    <tripinfo id="R_82" depart="33.00" departLane="3_1" departPos="6.10" departSpeed="0.00" departDelay="0.00" arrival="71.10" arrivalLane="-2_0" arrivalPos="200.00" arrivalSpeed="11.18" duration="38.10" routeLength="399.06" waitingTime="0.00" waitingCount="0" stopTime="0.00" timeLoss="-0.26" rerouteNo="0" devices="tripinfo_R_82" vType="car6@R_82" speedFactor="1.02" vaporized=""/>
    <tripinfo id="R_79" depart="32.10" departLane="2_2" departPos="9.10" departSpeed="0.00" departDelay="0.10" arrival="71.50" arrivalLane="-1_0" arrivalPos="200.00" arrivalSpeed="11.18" duration="39.40" routeLength="396.06" waitingTime="0.10" waitingCount="1" stopTime="0.00" timeLoss="1.31" rerouteNo="0" devices="tripinfo_R_79" vType="car9@R_79" speedFactor="1.09" vaporized=""/>
    <tripinfo id="L_64" depart="27.00" departLane="2_0" departPos="9.10" departSpeed="0.00" departDelay="0.00" arrival="71.90" arrivalLane="-3_2" arrivalPos="200.00" arrivalSpeed="11.18" duration="44.90" routeLength="410.45" waitingTime="0.00" waitingCount="0" stopTime="0.00" timeLoss="2.27" rerouteNo="0" devices="tripinfo_L_64" vType="car9@L_64" speedFactor="0.94" vaporized=""/>
    <tripinfo id="R_73" depart="30.00" departLane="1_0" departPos="6.10" departSpeed="0.00" departDelay="0.00" arrival="72.00" arrivalLane="-4_0" arrivalPos="200.00" arrivalSpeed="11.18" duration="42.00" routeLength="399.06" waitingTime="3.00" waitingCount="1" stopTime="0.00" timeLoss="-4451.41" rerouteNo="0" devices="tripinfo_R_73" vType="car6@R_73" speedFactor="1.06" vaporized=""/>
    <tripinfo id="R_85" depart="34.00" departLane="4_0" departPos="6.10" departSpeed="0.00" departDelay="0.00" arrival="72.10" arrivalLane="-3_0" arrivalPos="200.00" arrivalSpeed="11.18" duration="38.10" routeLength="399.06" waitingTime="0.00" waitingCount="0" stopTime="0.00" timeLoss="-0.30" rerouteNo="0" devices="tripinfo_R_85" vType="car6@R_85" speedFactor="0.98" vaporized=""/>
    <tripinfo id="R_78" depart="32.00" departLane="1_1" departPos="6.10" departSpeed="0.00" departDelay="0.00" arrival="72.90" arrivalLane="-4_0" arrivalPos="200.00" arrivalSpeed="11.18" duration="40.90" routeLength="399.06" waitingTime="1.40" waitingCount="1" stopTime="0.00" timeLoss="2.48" rerouteNo="0" devices="tripinfo_R_78" vType="car6@R_78" speedFactor="1.01" vaporized=""/>