<?xml version="1.0" encoding="UTF-8"?>

<!-- generated on 12/16/20 22:24:35 by Eclipse SUMO GUI Version 1.6.0
<configuration xmlns:xsi="http://www.w3.org/2001/XMLSchema-instance" xsi:noNamespaceSchemaLocation="http://sumo.dlr.de/xsd/sumoConfiguration.xsd">

    <input>
        <net-file value="data/two_inter.net.xml"/>
        <route-files value="data/icacc+.rou.xml"/>
    </input>

    <output>
        <tripinfo-output value="tripinfo.xml"/>
    </output>

    <time>
        <begin value="0"/>
        <step-length value="0.1"/>
    </time>

    <processing>
        <threads value="8"/>
        <collision.mingap-factor value="0"/>
        <time-to-teleport value="-1"/>
        <default.speeddev value="1"/>
    </processing>

    <report>
        <verbose value="true"/>
        <log value="error_log.txt"/>
        <no-step-log value="true"/>
    </report>

    <traci_server>
        <remote-port value="10131"/>
    </traci_server>

    <gui_only>
        <start value="true"/>
        <tracker-interval value="0.1"/>
    </gui_only>

</configuration>
-->

<tripinfos xmlns:xsi="http://www.w3.org/2001/XMLSchema-instance" xsi:noNamespaceSchemaLocation="http://sumo.dlr.de/xsd/tripinfo_file.xsd">
    <tripinfo id="RX_11" depart="1.00" departLane="002_001_4_0" departPos="6.10" departSpeed="11.18" departDelay="0.00" arrival="37.10" arrivalLane="003_001_1_0" arrivalPos="200.00" arrivalSpeed="11.18" duration="36.10" routeLength="402.93" waitingTime="0.00" waitingCount="0" stopTime="0.00" timeLoss="-2.20" rerouteNo="1" devices="tripinfo_RX_11" vType="car6@RX_11" speedFactor="1.83" vaporized=""/>
    <tripinfo id="SX_2" depart="0.00" departLane="001_001_4_1" departPos="8.10" departSpeed="11.18" departDelay="0.00" arrival="37.50" arrivalLane="001_002_4_2" arrivalPos="200.00" arrivalSpeed="11.18" duration="37.50" routeLength="419.10" waitingTime="0.00" waitingCount="0" stopTime="0.00" timeLoss="0.00" rerouteNo="1" devices="tripinfo_SX_2" vType="car8@SX_2" speedFactor="1.10" vaporized=""/>
    <tripinfo id="SX_1" depart="0.00" departLane="001_001_2_1" departPos="5.10" departSpeed="11.18" departDelay="0.00" arrival="37.80" arrivalLane="001_000_2_2" arrivalPos="200.00" arrivalSpeed="11.18" duration="37.80" routeLength="422.10" waitingTime="0.00" waitingCount="0" stopTime="0.00" timeLoss="0.00" rerouteNo="1" devices="tripinfo_SX_1" vType="car5@SX_1" speedFactor="1.60" vaporized=""/>
    <tripinfo id="LX_4" depart="0.00" departLane="002_001_3_2" departPos="8.10" departSpeed="11.18" departDelay="0.00" arrival="37.80" arrivalLane="002_000_2_2" arrivalPos="200.00" arrivalSpeed="11.18" duration="37.80" routeLength="415.12" waitingTime="0.00" waitingCount="0" stopTime="0.00" timeLoss="-2.37" rerouteNo="1" devices="tripinfo_LX_4" vType="car8@LX_4" speedFactor="1.30" vaporized=""/>
    <tripinfo id="LX_9" depart="1.00" departLane="002_001_2_2" departPos="6.10" departSpeed="11.18" departDelay="0.00" arrival="38.40" arrivalLane="003_001_1_2" arrivalPos="200.00" arrivalSpeed="11.18" duration="37.40" routeLength="417.11" waitingTime="0.00" waitingCount="0" stopTime="0.00" timeLoss="-2.36" rerouteNo="1" devices="tripinfo_LX_9" vType="car6@LX_9" speedFactor="1.47" vaporized=""/>
    <tripinfo id="RX_12" depart="2.00" departLane="001_001_1_0" departPos="9.10" departSpeed="11.18" departDelay="0.00" arrival="38.40" arrivalLane="001_000_2_0" arrivalPos="200.00" arrivalSpeed="11.18" duration="36.40" routeLength="399.93" waitingTime="0.00" waitingCount="0" stopTime="0.00" timeLoss="-2.40" rerouteNo="1" devices="tripinfo_RX_12" vType="car9@RX_12" speedFactor="1.30" vaporized=""/>
    <tripinfo id="SX_3" depart="0.00" departLane="002_001_2_1" departPos="6.10" departSpeed="11.18" departDelay="0.00" arrival="39.40" arrivalLane="002_000_2_1" arrivalPos="200.00" arrivalSpeed="11.18" duration="39.40" routeLength="421.10" waitingTime="0.00" waitingCount="0" stopTime="0.00" timeLoss="-0.17" rerouteNo="1" devices="tripinfo_SX_3" vType="car6@SX_3" speedFactor="1.83" vaporized=""/>
    <tripinfo id="LX_6" depart="1.20" departLane="001_001_1_2" departPos="6.10" departSpeed="11.18" departDelay="0.20" arrival="40.00" arrivalLane="001_002_4_2" arrivalPos="200.00" arrivalSpeed="11.18" duration="38.80" routeLength="417.12" waitingTime="0.60" waitingCount="1" stopTime="0.00" timeLoss="-1.01" rerouteNo="1" devices="tripinfo_LX_6" vType="car6@LX_6" speedFactor="1.00" vaporized=""/>
    <tripinfo id="LX_16" depart="2.00" departLane="002_001_3_2" departPos="9.10" departSpeed="11.18" departDelay="0.00" arrival="40.90" arrivalLane="002_000_2_2" arrivalPos="200.00" arrivalSpeed="11.18" duration="38.90" routeLength="414.12" waitingTime="0.80" waitingCount="1" stopTime="0.00" timeLoss="-4528.85" rerouteNo="1" devices="tripinfo_LX_16" vType="car9@LX_16" speedFactor="1.00" vaporized=""/>
    <tripinfo id="SX_13" depart="2.00" departLane="001_001_2_1" departPos="7.10" departSpeed="11.18" departDelay="0.00" arrival="41.00" arrivalLane="001_000_2_0" arrivalPos="200.00" arrivalSpeed="11.18" duration="39.00" routeLength="420.10" waitingTime="0.50" waitingCount="1" stopTime="0.00" timeLoss="-4295.58" rerouteNo="1" devices="tripinfo_SX_13" vType="car7@SX_13" speedFactor="1.46" vaporized=""/>
    <tripinfo id="LX_20" depart="3.00" departLane="001_001_4_2" departPos="8.10" departSpeed="11.18" departDelay="0.00" arrival="41.20" arrivalLane="000_001_3_2" arrivalPos="200.00" arrivalSpeed="11.18" duration="38.20" routeLength="415.11" waitingTime="0.00" waitingCount="0" stopTime="0.00" timeLoss="-2.37" rerouteNo="1" devices="tripinfo_LX_20" vType="car8@LX_20" speedFactor="1.47" vaporized=""/>
    <tripinfo id="SX_8" depart="1.00" departLane="001_001_4_1" departPos="7.10" departSpeed="11.18" departDelay="0.00" arrival="41.40" arrivalLane="001_002_4_1" arrivalPos="200.00" arrivalSpeed="11.18" duration="40.40" routeLength="420.10" waitingTime="0.70" waitingCount="1" stopTime="0.00" timeLoss="-4968.25" rerouteNo="1" devices="tripinfo_SX_8" vType="car7@SX_8" speedFactor="1.26" vaporized=""/>
    <tripinfo id="SX_15" depart="2.00" departLane="002_001_2_1" departPos="5.10" departSpeed="11.18" departDelay="0.00" arrival="41.80" arrivalLane="002_000_2_1" arrivalPos="200.00" arrivalSpeed="11.18" duration="39.80" routeLength="422.10" waitingTime="0.00" waitingCount="0" stopTime="0.00" timeLoss="-0.07" rerouteNo="1" devices="tripinfo_SX_15" vType="car5@SX_15" speedFactor="1.10" vaporized=""/>
    <tripinfo id="LX_22" depart="3.10" departLane="002_001_3_2" departPos="5.10" departSpeed="11.18" departDelay="0.10" arrival="42.00" arrivalLane="002_000_2_2" arrivalPos="200.00" arrivalSpeed="11.18" duration="38.90" routeLength="418.12" waitingTime="0.50" waitingCount="1" stopTime="0.00" timeLoss="-1.13" rerouteNo="1" devices="tripinfo_LX_22" vType="car5@LX_22" speedFactor="1.00" vaporized=""/>
    <tripinfo id="SX_27" depart="4.00" departLane="002_001_2_1" departPos="9.10" departSpeed="11.18" departDelay="0.00" arrival="42.10" arrivalLane="002_000_2_0" arrivalPos="200.00" arrivalSpeed="11.18" duration="38.10" routeLength="418.10" waitingTime="0.00" waitingCount="0" stopTime="0.00" timeLoss="-0.03" rerouteNo="1" devices="tripinfo_SX_27" vType="car9@SX_27" speedFactor="1.43" vaporized=""/>
    <tripinfo id="RX_36" depart="6.00" departLane="001_001_1_0" departPos="7.10" departSpeed="11.18" departDelay="0.00" arrival="42.20" arrivalLane="001_000_2_0" arrivalPos="200.00" arrivalSpeed="11.18" duration="36.20" routeLength="401.93" waitingTime="0.00" waitingCount="0" stopTime="0.00" timeLoss="-2.21" rerouteNo="1" devices="tripinfo_RX_36" vType="car7@RX_36" speedFactor="1.82" vaporized=""/>
    <tripinfo id="SX_17" depart="2.00" departLane="002_001_4_1" departPos="5.10" departSpeed="11.18" departDelay="0.00" arrival="42.90" arrivalLane="002_002_4_0" arrivalPos="200.00" arrivalSpeed="11.18" duration="40.90" routeLength="422.10" waitingTime="1.80" waitingCount="1" stopTime="0.00" timeLoss="-4906.94" rerouteNo="1" devices="tripinfo_SX_17" vType="car5@SX_17" speedFactor="1.91" vaporized=""/>
    <tripinfo id="LX_21" depart="3.00" departLane="002_001_2_2" departPos="9.10" departSpeed="11.18" departDelay="0.00" arrival="43.00" arrivalLane="003_001_1_2" arrivalPos="200.00" arrivalSpeed="11.18" duration="40.00" routeLength="414.11" waitingTime="0.00" waitingCount="0" stopTime="0.00" timeLoss="-2.52" rerouteNo="1" devices="tripinfo_LX_21" vType="car9@LX_21" speedFactor="1.20" vaporized=""/>
    <tripinfo id="LX_18" depart="3.00" departLane="001_001_1_2" departPos="8.10" departSpeed="11.18" departDelay="0.00" arrival="44.30" arrivalLane="001_002_4_2" arrivalPos="200.00" arrivalSpeed="11.18" duration="41.30" routeLength="415.12" waitingTime="2.60" waitingCount="1" stopTime="0.00" timeLoss="-3966.37" rerouteNo="1" devices="tripinfo_LX_18" vType="car8@LX_18" speedFactor="1.26" vaporized=""/>
    <tripinfo id="SX_23" depart="3.00" departLane="002_001_4_1" departPos="8.10" departSpeed="11.18" departDelay="0.00" arrival="44.50" arrivalLane="002_002_4_2" arrivalPos="200.00" arrivalSpeed="11.18" duration="41.50" routeLength="419.10" waitingTime="3.10" waitingCount="1" stopTime="0.00" timeLoss="-4405.61" rerouteNo="1" devices="tripinfo_SX_23" vType="car8@SX_23" speedFactor="1.30" vaporized=""/>
    <tripinfo id="RX_31" depart="5.20" departLane="001_001_2_0" departPos="6.10" departSpeed="11.18" departDelay="0.20" arrival="44.90" arrivalLane="000_001_3_0" arrivalPos="200.00" arrivalSpeed="11.18" duration="39.70" routeLength="402.93" waitingTime="2.60" waitingCount="1" stopTime="0.00" timeLoss="1.41" rerouteNo="1" devices="tripinfo_RX_31" vType="car6@RX_31" speedFactor="1.96" vaporized=""/>
    <tripinfo id="SX_29" depart="4.00" departLane="002_001_4_1" departPos="9.10" departSpeed="11.18" departDelay="0.00" arrival="45.30" arrivalLane="002_002_4_1" arrivalPos="200.00" arrivalSpeed="11.18" duration="41.30" routeLength="418.10" waitingTime="0.00" waitingCount="0" stopTime="0.00" timeLoss="-0.55" rerouteNo="1" devices="tripinfo_SX_29" vType="car9@SX_29" speedFactor="1.00" vaporized=""/>
    <tripinfo id="SX_25" depart="4.00" departLane="001_001_2_1" departPos="9.10" departSpeed="11.18" departDelay="0.00" arrival="45.50" arrivalLane="001_000_2_0" arrivalPos="200.00" arrivalSpeed="11.18" duration="41.50" routeLength="418.10" waitingTime="2.60" waitingCount="1" stopTime="0.00" timeLoss="-4787.97" rerouteNo="1" devices="tripinfo_SX_25" vType="car9@SX_25" speedFactor="1.92" vaporized=""/>
    <tripinfo id="LX_39" depart="6.00" departLane="002_001_2_2" departPos="9.10" departSpeed="11.18" departDelay="0.00" arrival="45.80" arrivalLane="003_001_1_1" arrivalPos="200.00" arrivalSpeed="11.18" duration="39.80" routeLength="419.00" waitingTime="0.60" waitingCount="1" stopTime="0.00" timeLoss="-4617.97" rerouteNo="1" devices="tripinfo_LX_39" vType="car9@LX_39" speedFactor="1.00" vaporized=""/>
    <tripinfo id="RX_55" depart="9.00" departLane="001_001_2_0" departPos="5.10" departSpeed="11.18" departDelay="0.00" arrival="45.80" arrivalLane="000_001_3_0" arrivalPos="200.00" arrivalSpeed="11.18" duration="36.80" routeLength="403.93" waitingTime="0.00" waitingCount="0" stopTime="0.00" timeLoss="-2.35" rerouteNo="1" devices="tripinfo_RX_55" vType="car5@RX_55" speedFactor="1.30" vaporized=""/>
    <tripinfo id="SX_26" depart="4.00" departLane="001_001_4_1" departPos="9.10" departSpeed="11.18" departDelay="0.00" arrival="46.00" arrivalLane="001_002_4_1" arrivalPos="200.00" arrivalSpeed="11.18" duration="42.00" routeLength="418.10" waitingTime="2.70" waitingCount="1" stopTime="0.00" timeLoss="-4937.11" rerouteNo="1" devices="tripinfo_SX_26" vType="car9@SX_26" speedFactor="1.38" vaporized=""/>
    <tripinfo id="SX_50" depart="8.00" departLane="001_001_4_1" departPos="6.10" departSpeed="11.18" departDelay="0.00" arrival="46.20" arrivalLane="001_002_4_2" arrivalPos="200.00" arrivalSpeed="11.18" duration="38.20" routeLength="421.10" waitingTime="0.00" waitingCount="0" stopTime="0.00" timeLoss="-0.01" rerouteNo="1" devices="tripinfo_SX_50" vType="car6@SX_50" speedFactor="1.07" vaporized=""/>
    <tripinfo id="RX_54" depart="9.00" departLane="001_001_1_0" departPos="6.10" departSpeed="11.18" departDelay="0.00" arrival="46.80" arrivalLane="001_000_2_0" arrivalPos="200.00" arrivalSpeed="11.18" duration="37.80" routeLength="402.93" waitingTime="0.00" waitingCount="0" stopTime="0.00" timeLoss="-2.62" rerouteNo="1" devices="tripinfo_RX_54" vType="car6@RX_54" speedFactor="1.17" vaporized=""/>
    <tripinfo id="RX_46" depart="7.30" departLane="002_001_3_0" departPos="7.10" departSpeed="11.18" departDelay="0.30" arrival="47.10" arrivalLane="002_002_4_0" arrivalPos="200.00" arrivalSpeed="11.18" duration="39.80" routeLength="401.93" waitingTime="3.00" waitingCount="1" stopTime="0.00" timeLoss="1.20" rerouteNo="1" devices="tripinfo_RX_46" vType="car7@RX_46" speedFactor="1.05" vaporized=""/>
    <tripinfo id="RX_66" depart="11.00" departLane="001_001_1_0" departPos="6.10" departSpeed="11.18" departDelay="0.00" arrival="47.70" arrivalLane="001_000_2_0" arrivalPos="200.00" arrivalSpeed="11.18" duration="36.70" routeLength="402.93" waitingTime="0.00" waitingCount="0" stopTime="0.00" timeLoss="-2.18" rerouteNo="1" devices="tripinfo_RX_66" vType="car6@RX_66" speedFactor="1.97" vaporized=""/>
    <tripinfo id="SX_41" depart="6.00" departLane="002_001_4_1" departPos="8.10" departSpeed="11.18" departDelay="0.00" arrival="48.50" arrivalLane="002_002_4_2" arrivalPos="200.00" arrivalSpeed="11.18" duration="42.50" routeLength="419.10" waitingTime="2.90" waitingCount="2" stopTime="0.00" timeLoss="-4847.03" rerouteNo="1" devices="tripinfo_SX_41" vType="car8@SX_41" speedFactor="1.22" vaporized=""/>
    <tripinfo id="SX_65" depart="10.00" departLane="002_001_4_1" departPos="8.10" departSpeed="11.18" departDelay="0.00" arrival="48.50" arrivalLane="002_002_4_1" arrivalPos="200.00" arrivalSpeed="11.18" duration="38.50" routeLength="419.10" waitingTime="0.00" waitingCount="0" stopTime="0.00" timeLoss="-0.03" rerouteNo="1" devices="tripinfo_SX_65" vType="car8@SX_65" speedFactor="1.10" vaporized=""/>
    <tripinfo id="RX_79" depart="13.00" departLane="001_001_2_0" departPos="9.10" departSpeed="11.18" departDelay="0.00" arrival="48.80" arrivalLane="000_001_3_0" arrivalPos="200.00" arrivalSpeed="11.18" duration="35.80" routeLength="399.93" waitingTime="0.00" waitingCount="0" stopTime="0.00" timeLoss="-2.21" rerouteNo="1" devices="tripinfo_RX_79" vType="car9@RX_79" speedFactor="1.96" vaporized=""/>
    <tripinfo id="SX_37" depart="6.00" departLane="001_001_2_1" departPos="7.10" departSpeed="11.18" departDelay="0.00" arrival="48.90" arrivalLane="001_000_2_2" arrivalPos="200.00" arrivalSpeed="11.18" duration="42.90" routeLength="420.10" waitingTime="3.10" waitingCount="2" stopTime="0.00" timeLoss="-4846.73" rerouteNo="1" devices="tripinfo_SX_37" vType="car7@SX_37" speedFactor="1.16" vaporized=""/>
    <tripinfo id="SX_35" depart="5.40" departLane="002_001_4_1" departPos="8.10" departSpeed="11.18" departDelay="0.40" arrival="49.00" arrivalLane="002_002_4_0" arrivalPos="200.00" arrivalSpeed="11.18" duration="43.60" routeLength="419.10" waitingTime="4.30" waitingCount="1" stopTime="0.00" timeLoss="-4819.06" rerouteNo="1" devices="tripinfo_SX_35" vType="car8@SX_35" speedFactor="1.18" vaporized=""/>
    <tripinfo id="LX_30" depart="7.10" departLane="001_001_1_2" departPos="7.10" departSpeed="11.18" departDelay="2.10" arrival="49.20" arrivalLane="001_002_4_2" arrivalPos="200.00" arrivalSpeed="11.18" duration="42.10" routeLength="416.12" waitingTime="2.10" waitingCount="2" stopTime="0.00" timeLoss="-0.61" rerouteNo="1" devices="tripinfo_LX_30" vType="car7@LX_30" speedFactor="1.17" vaporized=""/>
    <tripinfo id="SX_56" depart="9.00" departLane="001_001_4_1" departPos="8.10" departSpeed="11.18" departDelay="0.00" arrival="49.80" arrivalLane="001_002_4_1" arrivalPos="200.00" arrivalSpeed="11.18" duration="40.80" routeLength="419.10" waitingTime="0.00" waitingCount="0" stopTime="0.00" timeLoss="-0.20" rerouteNo="1" devices="tripinfo_SX_56" vType="car8@SX_56" speedFactor="1.00" vaporized=""/>
    <tripinfo id="LX_42" depart="8.20" departLane="001_001_1_2" departPos="5.10" departSpeed="11.18" departDelay="1.20" arrival="50.20" arrivalLane="001_002_4_2" arrivalPos="200.00" arrivalSpeed="11.18" duration="42.00" routeLength="418.12" waitingTime="1.50" waitingCount="1" stopTime="0.00" timeLoss="2.11" rerouteNo="1" devices="tripinfo_LX_42" vType="car5@LX_42" speedFactor="1.23" vaporized=""/>
    <tripinfo id="RX_58" depart="9.00" departLane="002_001_3_0" departPos="5.10" departSpeed="11.18" departDelay="0.00" arrival="50.30" arrivalLane="002_002_4_0" arrivalPos="200.00" arrivalSpeed="11.18" duration="41.30" routeLength="403.93" waitingTime="3.00" waitingCount="2" stopTime="0.00" timeLoss="-4235.42" rerouteNo="1" devices="tripinfo_RX_58" vType="car5@RX_58" speedFactor="1.43" vaporized=""/>
    <tripinfo id="LX_52" depart="8.00" departLane="002_001_3_2" departPos="9.10" departSpeed="11.18" departDelay="0.00" arrival="50.90" arrivalLane="002_000_2_2" arrivalPos="200.00" arrivalSpeed="11.18" duration="42.90" routeLength="414.12" waitingTime="3.50" waitingCount="2" stopTime="0.00" timeLoss="-4852.68" rerouteNo="1" devices="tripinfo_LX_52" vType="car9@LX_52" speedFactor="1.34" vaporized=""/>
    <tripinfo id="RX_90" depart="15.00" departLane="001_001_1_0" departPos="7.10" departSpeed="11.18" departDelay="0.00" arrival="51.00" arrivalLane="001_000_2_0" arrivalPos="200.00" arrivalSpeed="11.18" duration="36.00" routeLength="401.93" waitingTime="0.00" waitingCount="0" stopTime="0.00" timeLoss="-2.35" rerouteNo="1" devices="tripinfo_RX_90" vType="car7@RX_90" speedFactor="1.32" vaporized=""/>
    <tripinfo id="SX_51" depart="8.00" departLane="002_001_2_1" departPos="8.10" departSpeed="11.18" departDelay="0.00" arrival="51.10" arrivalLane="002_000_2_1" arrivalPos="200.00" arrivalSpeed="11.18" duration="43.10" routeLength="419.10" waitingTime="3.70" waitingCount="2" stopTime="0.00" timeLoss="-4682.35" rerouteNo="1" devices="tripinfo_SX_51" vType="car8@SX_51" speedFactor="1.87" vaporized=""/>
    <tripinfo id="RX_76" depart="12.00" departLane="002_001_3_0" departPos="5.10" departSpeed="11.18" departDelay="0.00" arrival="51.10" arrivalLane="002_002_4_0" arrivalPos="200.00" arrivalSpeed="11.18" duration="39.10" routeLength="403.93" waitingTime="1.50" waitingCount="1" stopTime="0.00" timeLoss="0.37" rerouteNo="1" devices="tripinfo_RX_76" vType="car5@RX_76" speedFactor="1.17" vaporized=""/>
    <tripinfo id="LX_57" depart="9.00" departLane="002_001_2_2" departPos="5.10" departSpeed="11.18" departDelay="0.00" arrival="51.60" arrivalLane="003_001_1_2" arrivalPos="200.00" arrivalSpeed="11.18" duration="42.60" routeLength="418.11" waitingTime="4.20" waitingCount="1" stopTime="0.00" timeLoss="-4061.08" rerouteNo="1" devices="tripinfo_LX_57" vType="car5@LX_57" speedFactor="1.02" vaporized=""/>
    <tripinfo id="SX_63" depart="10.00" departLane="002_001_2_1" departPos="8.10" departSpeed="11.18" departDelay="0.00" arrival="52.10" arrivalLane="002_000_2_1" arrivalPos="200.00" arrivalSpeed="11.18" duration="42.10" routeLength="419.10" waitingTime="3.40" waitingCount="1" stopTime="0.00" timeLoss="4.47" rerouteNo="1" devices="tripinfo_SX_63" vType="car8@SX_63" speedFactor="1.91" vaporized=""/>
    <tripinfo id="SX_85" depart="14.00" departLane="001_001_2_1" departPos="5.10" departSpeed="11.18" departDelay="0.00" arrival="52.30" arrivalLane="001_000_2_1" arrivalPos="200.00" arrivalSpeed="11.18" duration="38.30" routeLength="422.10" waitingTime="0.00" waitingCount="0" stopTime="0.00" timeLoss="-0.01" rerouteNo="1" devices="tripinfo_SX_85" vType="car5@SX_85" speedFactor="1.31" vaporized=""/>
    <tripinfo id="RX_103" depart="17.00" departLane="001_001_2_0" departPos="6.10" departSpeed="11.18" departDelay="0.00" arrival="53.10" arrivalLane="000_001_3_0" arrivalPos="200.00" arrivalSpeed="11.18" duration="36.10" routeLength="402.93" waitingTime="0.00" waitingCount="0" stopTime="0.00" timeLoss="-2.61" rerouteNo="1" devices="tripinfo_RX_103" vType="car6@RX_103" speedFactor="1.05" vaporized=""/>
    <tripinfo id="SX_77" depart="12.00" departLane="002_001_4_1" departPos="8.10" departSpeed="11.18" departDelay="0.00" arrival="53.50" arrivalLane="002_002_4_1" arrivalPos="200.00" arrivalSpeed="11.18" duration="41.50" routeLength="419.10" waitingTime="3.00" waitingCount="1" stopTime="0.00" timeLoss="-4532.56" rerouteNo="1" devices="tripinfo_SX_77" vType="car8@SX_77" speedFactor="1.99" vaporized=""/>
    <tripinfo id="SX_62" depart="10.30" departLane="001_001_4_1" departPos="7.10" departSpeed="11.18" departDelay="0.30" arrival="54.60" arrivalLane="001_002_4_2" arrivalPos="200.00" arrivalSpeed="11.18" duration="44.30" routeLength="420.10" waitingTime="5.80" waitingCount="1" stopTime="0.00" timeLoss="-4295.59" rerouteNo="1" devices="tripinfo_SX_62" vType="car7@SX_62" speedFactor="1.92" vaporized=""/>
    <tripinfo id="RX_109" depart="18.50" departLane="001_001_2_0" departPos="9.10" departSpeed="11.18" departDelay="0.50" arrival="54.60" arrivalLane="000_001_3_0" arrivalPos="200.00" arrivalSpeed="11.18" duration="36.10" routeLength="399.93" waitingTime="0.00" waitingCount="0" stopTime="0.00" timeLoss="-2.29" rerouteNo="1" devices="tripinfo_RX_109" vType="car9@RX_109" speedFactor="1.40" vaporized=""/>
    <tripinfo id="SX_61" depart="10.00" departLane="001_001_2_1" departPos="6.10" departSpeed="11.18" departDelay="0.00" arrival="54.70" arrivalLane="001_000_2_2" arrivalPos="200.00" arrivalSpeed="11.18" duration="44.70" routeLength="421.10" waitingTime="4.40" waitingCount="2" stopTime="0.00" timeLoss="6.81" rerouteNo="1" devices="tripinfo_SX_61" vType="car6@SX_61" speedFactor="1.17" vaporized=""/>
    <tripinfo id="LX_70" depart="11.00" departLane="002_001_3_2" departPos="6.10" departSpeed="11.18" departDelay="0.00" arrival="55.10" arrivalLane="002_000_2_2" arrivalPos="200.00" arrivalSpeed="11.18" duration="44.10" routeLength="417.12" waitingTime="4.10" waitingCount="2" stopTime="0.00" timeLoss="-4718.62" rerouteNo="1" devices="tripinfo_LX_70" vType="car6@LX_70" speedFactor="1.88" vaporized=""/>
    <tripinfo id="RX_83" depart="13.00" departLane="002_001_4_0" departPos="6.10" departSpeed="11.18" departDelay="0.00" arrival="55.10" arrivalLane="003_001_1_0" arrivalPos="200.00" arrivalSpeed="11.18" duration="42.10" routeLength="402.93" waitingTime="5.10" waitingCount="1" stopTime="0.00" timeLoss="3.83" rerouteNo="1" devices="tripinfo_RX_83" vType="car6@RX_83" speedFactor="1.71" vaporized=""/>
    <tripinfo id="SX_110" depart="18.00" departLane="001_001_4_1" departPos="8.10" departSpeed="11.18" departDelay="0.00" arrival="55.50" arrivalLane="001_002_4_1" arrivalPos="200.00" arrivalSpeed="11.18" duration="37.50" routeLength="419.10" waitingTime="0.00" waitingCount="0" stopTime="0.00" timeLoss="0.00" rerouteNo="1" devices="tripinfo_SX_110" vType="car8@SX_110" speedFactor="1.52" vaporized=""/>
    <tripinfo id="LX_60" depart="10.00" departLane="001_001_1_2" departPos="8.10" departSpeed="11.18" departDelay="0.00" arrival="55.70" arrivalLane="001_002_4_2" arrivalPos="200.00" arrivalSpeed="11.18" duration="45.70" routeLength="415.12" waitingTime="5.30" waitingCount="2" stopTime="0.00" timeLoss="-4986.81" rerouteNo="1" devices="tripinfo_LX_60" vType="car8@LX_60" speedFactor="1.22" vaporized=""/>
    <tripinfo id="SX_71" depart="11.10" departLane="002_001_4_1" departPos="5.10" departSpeed="11.18" departDelay="0.10" arrival="56.10" arrivalLane="002_002_4_0" arrivalPos="200.00" arrivalSpeed="11.18" duration="45.00" routeLength="422.10" waitingTime="5.20" waitingCount="1" stopTime="0.00" timeLoss="-4858.89" rerouteNo="1" devices="tripinfo_SX_71" vType="car5@SX_71" speedFactor="1.73" vaporized=""/>
    <tripinfo id="RX_107" depart="17.00" departLane="002_001_4_0" departPos="7.10" departSpeed="11.18" departDelay="0.00" arrival="56.30" arrivalLane="003_001_1_0" arrivalPos="200.00" arrivalSpeed="11.18" duration="39.30" routeLength="401.93" waitingTime="1.80" waitingCount="1" stopTime="0.00" timeLoss="0.49" rerouteNo="1" devices="tripinfo_RX_107" vType="car7@RX_107" speedFactor="1.79" vaporized=""/>
    <tripinfo id="SX_95" depart="15.00" departLane="002_001_4_1" departPos="5.10" departSpeed="11.18" departDelay="0.00" arrival="56.60" arrivalLane="002_002_4_1" arrivalPos="200.00" arrivalSpeed="11.18" duration="41.60" routeLength="422.10" waitingTime="1.20" waitingCount="1" stopTime="0.00" timeLoss="-4783.65" rerouteNo="1" devices="tripinfo_SX_95" vType="car5@SX_95" speedFactor="1.15" vaporized=""/>
    <tripinfo id="SX_81" depart="13.00" departLane="002_001_2_1" departPos="7.10" departSpeed="11.18" departDelay="0.00" arrival="56.80" arrivalLane="002_000_2_2" arrivalPos="200.00" arrivalSpeed="11.18" duration="43.80" routeLength="420.10" waitingTime="3.90" waitingCount="2" stopTime="0.00" timeLoss="-4760.81" rerouteNo="1" devices="tripinfo_SX_81" vType="car7@SX_81" speedFactor="1.04" vaporized=""/>
    <tripinfo id="LX_68" depart="11.60" departLane="001_001_4_2" departPos="7.10" departSpeed="11.18" departDelay="0.60" arrival="57.00" arrivalLane="000_001_3_2" arrivalPos="200.00" arrivalSpeed="11.18" duration="45.40" routeLength="416.11" waitingTime="6.30" waitingCount="2" stopTime="0.00" timeLoss="-4934.43" rerouteNo="1" devices="tripinfo_LX_68" vType="car7@LX_68" speedFactor="1.38" vaporized=""/>
    <tripinfo id="RX_113" depart="18.20" departLane="002_001_4_0" departPos="6.10" departSpeed="11.18" departDelay="0.20" arrival="57.30" arrivalLane="003_001_1_0" arrivalPos="200.00" arrivalSpeed="11.18" duration="39.10" routeLength="402.93" waitingTime="1.00" waitingCount="1" stopTime="0.00" timeLoss="0.44" rerouteNo="1" devices="tripinfo_RX_113" vType="car6@RX_113" speedFactor="1.22" vaporized=""/>
    <tripinfo id="SX_116" depart="19.50" departLane="001_001_4_1" departPos="9.10" departSpeed="11.18" departDelay="0.50" arrival="57.30" arrivalLane="001_002_4_1" arrivalPos="200.00" arrivalSpeed="11.18" duration="37.80" routeLength="418.10" waitingTime="0.00" waitingCount="0" stopTime="0.00" timeLoss="-0.00" rerouteNo="1" devices="tripinfo_SX_116" vType="car9@SX_116" speedFactor="1.00" vaporized=""/>
    <tripinfo id="SX_123" depart="20.00" departLane="002_001_2_1" departPos="9.10" departSpeed="11.18" departDelay="0.00" arrival="57.40" arrivalLane="002_000_2_1" arrivalPos="200.00" arrivalSpeed="11.18" duration="37.40" routeLength="418.10" waitingTime="0.00" waitingCount="0" stopTime="0.00" timeLoss="0.00" rerouteNo="1" devices="tripinfo_SX_123" vType="car9@SX_123" speedFactor="1.30" vaporized=""/>
    <tripinfo id="RX_120" depart="20.00" departLane="001_001_1_0" departPos="7.10" departSpeed="11.18" departDelay="0.00" arrival="57.50" arrivalLane="001_000_2_0" arrivalPos="200.00" arrivalSpeed="11.18" duration="37.50" routeLength="401.93" waitingTime="0.30" waitingCount="1" stopTime="0.00" timeLoss="-0.77" rerouteNo="1" devices="tripinfo_RX_120" vType="car7@RX_120" speedFactor="1.65" vaporized=""/>
    <tripinfo id="LX_82" depart="13.00" departLane="002_001_3_2" departPos="9.10" departSpeed="11.18" departDelay="0.00" arrival="57.90" arrivalLane="002_000_2_2" arrivalPos="200.00" arrivalSpeed="11.18" duration="44.90" routeLength="414.12" waitingTime="4.70" waitingCount="3" stopTime="0.00" timeLoss="-4857.71" rerouteNo="1" devices="tripinfo_LX_82" vType="car9@LX_82" speedFactor="1.03" vaporized=""/>
    <tripinfo id="RX_126" depart="21.20" departLane="001_001_1_0" departPos="6.10" departSpeed="11.18" departDelay="0.20" arrival="58.40" arrivalLane="001_000_2_0" arrivalPos="200.00" arrivalSpeed="11.18" duration="37.20" routeLength="402.93" waitingTime="0.00" waitingCount="0" stopTime="0.00" timeLoss="-1.18" rerouteNo="1" devices="tripinfo_RX_126" vType="car6@RX_126" speedFactor="1.79" vaporized=""/>
    <tripinfo id="LX_87" depart="14.20" departLane="002_001_2_2" departPos="6.10" departSpeed="11.18" departDelay="0.20" arrival="58.60" arrivalLane="003_001_1_2" arrivalPos="200.00" arrivalSpeed="11.18" duration="44.40" routeLength="417.11" waitingTime="3.40" waitingCount="3" stopTime="0.00" timeLoss="-4728.82" rerouteNo="1" devices="tripinfo_LX_87" vType="car6@LX_87" speedFactor="1.61" vaporized=""/>
    <tripinfo id="RX_136" depart="22.00" departLane="002_001_3_0" departPos="8.10" departSpeed="11.18" departDelay="0.00" arrival="58.60" arrivalLane="002_002_4_0" arrivalPos="200.00" arrivalSpeed="11.18" duration="36.60" routeLength="400.93" waitingTime="0.00" waitingCount="0" stopTime="0.00" timeLoss="-2.07" rerouteNo="1" devices="tripinfo_RX_136" vType="car8@RX_136" speedFactor="1.35" vaporized=""/>
    <tripinfo id="SX_129" depart="21.10" departLane="002_001_2_1" departPos="5.10" departSpeed="11.18" departDelay="0.10" arrival="58.90" arrivalLane="002_000_2_1" arrivalPos="200.00" arrivalSpeed="11.18" duration="37.80" routeLength="422.10" waitingTime="0.00" waitingCount="0" stopTime="0.00" timeLoss="0.00" rerouteNo="1" devices="tripinfo_SX_129" vType="car5@SX_129" speedFactor="1.00" vaporized=""/>
    <tripinfo id="RX_139" depart="23.00" departLane="001_001_2_0" departPos="8.10" departSpeed="11.18" departDelay="0.00" arrival="58.90" arrivalLane="000_001_3_0" arrivalPos="200.00" arrivalSpeed="11.18" duration="35.90" routeLength="400.93" waitingTime="0.00" waitingCount="0" stopTime="0.00" timeLoss="-2.63" rerouteNo="1" devices="tripinfo_RX_139" vType="car8@RX_139" speedFactor="1.03" vaporized=""/>
    <tripinfo id="RX_138" depart="23.00" departLane="001_001_1_0" departPos="7.10" departSpeed="11.18" departDelay="0.00" arrival="59.30" arrivalLane="001_000_2_0" arrivalPos="200.00" arrivalSpeed="11.18" duration="36.30" routeLength="401.93" waitingTime="0.00" waitingCount="0" stopTime="0.00" timeLoss="-2.15" rerouteNo="1" devices="tripinfo_RX_138" vType="car7@RX_138" speedFactor="1.22" vaporized=""/>