<?xml version="1.0" encoding="UTF-8"?>

<!-- generated on 01/18/21 19:17:04 by Eclipse SUMO sumo Version 1.8.0
<configuration xmlns:xsi="http://www.w3.org/2001/XMLSchema-instance" xsi:noNamespaceSchemaLocation="http://sumo.dlr.de/xsd/sumoConfiguration.xsd">

    <input>
        <net-file value="data/two_inter.net.xml"/>
        <route-files value="data/icacc+.rou.xml"/>
    </input>

    <output>
        <tripinfo-output value="tripinfo.xml"/>
    </output>

    <time>
        <begin value="0"/>
        <step-length value="0.1"/>
    </time>

    <processing>
        <threads value="8"/>
        <collision.mingap-factor value="0"/>
        <time-to-teleport value="-1"/>
        <default.speeddev value="1"/>
    </processing>

    <report>
        <verbose value="true"/>
        <log value="error_log.txt"/>
        <no-step-log value="true"/>
    </report>

    <traci_server>
        <remote-port value="2795"/>
    </traci_server>

    <gui_only>
        <start value="true"/>
        <tracker-interval value="0.1"/>
    </gui_only>

</configuration>
-->

<tripinfos xmlns:xsi="http://www.w3.org/2001/XMLSchema-instance" xsi:noNamespaceSchemaLocation="http://sumo.dlr.de/xsd/tripinfo_file.xsd">
    <tripinfo id="RX_1" depart="0.00" departLane="001_001_2_0" departPos="9.10" departSpeed="11.18" departDelay="0.00" arrival="35.80" arrivalLane="000_001_3_0" arrivalPos="200.00" arrivalSpeed="11.18" duration="35.80" routeLength="399.93" waitingTime="0.00" waitingCount="0" stopTime="0.00" timeLoss="-2.21" rerouteNo="1" devices="tripinfo_RX_1" vType="car9@RX_1" speedFactor="1.60" vaporized=""/>
    <tripinfo id="LX_0" depart="0.00" departLane="001_001_1_2" departPos="7.10" departSpeed="11.18" departDelay="0.00" arrival="37.30" arrivalLane="001_002_4_2" arrivalPos="200.00" arrivalSpeed="11.18" duration="37.30" routeLength="416.12" waitingTime="0.00" waitingCount="0" stopTime="0.00" timeLoss="-2.36" rerouteNo="1" devices="tripinfo_LX_0" vType="car7@LX_0" speedFactor="1.60" vaporized=""/>
    <tripinfo id="RX_10" depart="1.20" departLane="002_001_4_0" departPos="6.10" departSpeed="11.18" departDelay="0.20" arrival="37.50" arrivalLane="003_001_1_0" arrivalPos="200.00" arrivalSpeed="11.18" duration="36.30" routeLength="402.93" waitingTime="0.00" waitingCount="0" stopTime="0.00" timeLoss="-2.53" rerouteNo="1" devices="tripinfo_RX_10" vType="car6@RX_10" speedFactor="1.10" vaporized=""/>
    <tripinfo id="LX_2" depart="0.00" departLane="001_001_4_2" departPos="8.10" departSpeed="11.18" departDelay="0.00" arrival="37.80" arrivalLane="000_001_3_2" arrivalPos="200.00" arrivalSpeed="11.18" duration="37.80" routeLength="415.11" waitingTime="0.00" waitingCount="0" stopTime="0.00" timeLoss="-2.38" rerouteNo="1" devices="tripinfo_LX_2" vType="car8@LX_2" speedFactor="1.10" vaporized=""/>
    <tripinfo id="SX_5" depart="0.00" departLane="002_001_4_1" departPos="8.10" departSpeed="11.18" departDelay="0.00" arrival="38.10" arrivalLane="002_002_4_0" arrivalPos="200.00" arrivalSpeed="11.18" duration="38.10" routeLength="419.10" waitingTime="0.00" waitingCount="0" stopTime="0.00" timeLoss="-0.03" rerouteNo="1" devices="tripinfo_SX_5" vType="car8@SX_5" speedFactor="1.46" vaporized=""/>
    <tripinfo id="LX_9" depart="1.00" departLane="002_001_2_2" departPos="6.10" departSpeed="11.18" departDelay="0.00" arrival="39.10" arrivalLane="003_001_1_1" arrivalPos="200.00" arrivalSpeed="11.18" duration="38.10" routeLength="422.00" waitingTime="0.00" waitingCount="0" stopTime="0.00" timeLoss="-2.41" rerouteNo="1" devices="tripinfo_LX_9" vType="car6@LX_9" speedFactor="1.47" vaporized=""/>
    <tripinfo id="SX_14" depart="2.10" departLane="002_001_2_1" departPos="5.10" departSpeed="11.18" departDelay="0.10" arrival="39.90" arrivalLane="002_000_2_0" arrivalPos="200.00" arrivalSpeed="11.18" duration="37.80" routeLength="422.10" waitingTime="0.00" waitingCount="0" stopTime="0.00" timeLoss="0.00" rerouteNo="1" devices="tripinfo_SX_14" vType="car5@SX_14" speedFactor="1.18" vaporized=""/>
    <tripinfo id="LX_6" depart="1.40" departLane="001_001_1_2" departPos="8.10" departSpeed="11.18" departDelay="0.40" arrival="40.70" arrivalLane="001_002_4_2" arrivalPos="200.00" arrivalSpeed="11.18" duration="39.30" routeLength="415.12" waitingTime="1.20" waitingCount="1" stopTime="0.00" timeLoss="-4407.97" rerouteNo="1" devices="tripinfo_LX_6" vType="car8@LX_6" speedFactor="1.00" vaporized=""/>
    <tripinfo id="LX_19" depart="3.00" departLane="002_001_2_2" departPos="6.10" departSpeed="11.18" departDelay="0.00" arrival="40.70" arrivalLane="003_001_1_2" arrivalPos="200.00" arrivalSpeed="11.18" duration="37.70" routeLength="417.11" waitingTime="0.00" waitingCount="0" stopTime="0.00" timeLoss="-2.36" rerouteNo="1" devices="tripinfo_LX_19" vType="car6@LX_19" speedFactor="1.05" vaporized=""/>
    <tripinfo id="RX_31" depart="5.00" departLane="002_001_3_0" departPos="5.10" departSpeed="11.18" departDelay="0.00" arrival="41.20" arrivalLane="002_002_4_0" arrivalPos="200.00" arrivalSpeed="11.18" duration="36.20" routeLength="403.93" waitingTime="0.00" waitingCount="0" stopTime="0.00" timeLoss="-2.20" rerouteNo="1" devices="tripinfo_RX_31" vType="car5@RX_31" speedFactor="1.96" vaporized=""/>
    <tripinfo id="SX_12" depart="2.00" departLane="001_001_2_1" departPos="9.10" departSpeed="11.18" departDelay="0.00" arrival="41.90" arrivalLane="001_000_2_0" arrivalPos="200.00" arrivalSpeed="11.18" duration="39.90" routeLength="418.10" waitingTime="1.50" waitingCount="1" stopTime="0.00" timeLoss="-4526.48" rerouteNo="1" devices="tripinfo_SX_12" vType="car9@SX_12" speedFactor="1.30" vaporized=""/>
    <tripinfo id="LX_13" depart="2.00" departLane="001_001_4_2" departPos="6.10" departSpeed="11.18" departDelay="0.00" arrival="42.30" arrivalLane="000_001_3_2" arrivalPos="200.00" arrivalSpeed="11.18" duration="40.30" routeLength="417.11" waitingTime="2.00" waitingCount="1" stopTime="0.00" timeLoss="-4182.45" rerouteNo="1" devices="tripinfo_LX_13" vType="car6@LX_13" speedFactor="1.46" vaporized=""/>
    <tripinfo id="RX_36" depart="6.20" departLane="002_001_3_0" departPos="6.10" departSpeed="11.18" departDelay="0.20" arrival="42.30" arrivalLane="002_002_4_0" arrivalPos="200.00" arrivalSpeed="11.18" duration="36.10" routeLength="402.93" waitingTime="0.00" waitingCount="0" stopTime="0.00" timeLoss="-2.20" rerouteNo="1" devices="tripinfo_RX_36" vType="car6@RX_36" speedFactor="1.82" vaporized=""/>
    <tripinfo id="LX_18" depart="3.20" departLane="001_001_4_2" departPos="6.10" departSpeed="11.18" departDelay="0.20" arrival="43.10" arrivalLane="000_001_3_2" arrivalPos="200.00" arrivalSpeed="11.18" duration="39.90" routeLength="417.11" waitingTime="1.70" waitingCount="1" stopTime="0.00" timeLoss="0.15" rerouteNo="1" devices="tripinfo_LX_18" vType="car6@LX_18" speedFactor="1.26" vaporized=""/>
    <tripinfo id="LX_25" depart="4.00" departLane="002_001_3_2" departPos="9.10" departSpeed="11.18" departDelay="0.00" arrival="43.10" arrivalLane="002_000_2_2" arrivalPos="200.00" arrivalSpeed="11.18" duration="39.10" routeLength="414.12" waitingTime="0.00" waitingCount="0" stopTime="0.00" timeLoss="-2.45" rerouteNo="1" devices="tripinfo_LX_25" vType="car9@LX_25" speedFactor="1.92" vaporized=""/>
    <tripinfo id="SX_35" depart="6.00" departLane="002_001_2_1" departPos="8.10" departSpeed="11.18" departDelay="0.00" arrival="43.50" arrivalLane="002_000_2_1" arrivalPos="200.00" arrivalSpeed="11.18" duration="37.50" routeLength="419.10" waitingTime="0.00" waitingCount="0" stopTime="0.00" timeLoss="0.00" rerouteNo="1" devices="tripinfo_SX_35" vType="car8@SX_35" speedFactor="1.18" vaporized=""/>
    <tripinfo id="SX_26" depart="4.00" departLane="002_001_4_1" departPos="7.10" departSpeed="11.18" departDelay="0.00" arrival="44.30" arrivalLane="002_002_4_0" arrivalPos="200.00" arrivalSpeed="11.18" duration="40.30" routeLength="420.10" waitingTime="0.00" waitingCount="0" stopTime="0.00" timeLoss="-0.14" rerouteNo="1" devices="tripinfo_SX_26" vType="car7@SX_26" speedFactor="1.38" vaporized=""/>
    <tripinfo id="RX_21" depart="5.10" departLane="001_001_1_0" departPos="8.10" departSpeed="11.18" departDelay="1.10" arrival="44.60" arrivalLane="001_000_2_0" arrivalPos="200.00" arrivalSpeed="11.18" duration="39.50" routeLength="400.93" waitingTime="2.70" waitingCount="1" stopTime="0.00" timeLoss="1.04" rerouteNo="1" devices="tripinfo_RX_21" vType="car8@RX_21" speedFactor="1.20" vaporized=""/>
    <tripinfo id="SX_41" depart="7.00" departLane="002_001_4_1" departPos="5.10" departSpeed="11.18" departDelay="0.00" arrival="44.80" arrivalLane="002_002_4_1" arrivalPos="200.00" arrivalSpeed="11.18" duration="37.80" routeLength="422.10" waitingTime="0.00" waitingCount="0" stopTime="0.00" timeLoss="0.00" rerouteNo="1" devices="tripinfo_SX_41" vType="car5@SX_41" speedFactor="1.22" vaporized=""/>
    <tripinfo id="SX_39" depart="7.30" departLane="002_001_2_1" departPos="7.10" departSpeed="11.18" departDelay="0.30" arrival="45.10" arrivalLane="002_000_2_2" arrivalPos="200.00" arrivalSpeed="11.18" duration="37.80" routeLength="420.10" waitingTime="0.00" waitingCount="0" stopTime="0.00" timeLoss="-0.00" rerouteNo="1" devices="tripinfo_SX_39" vType="car7@SX_39" speedFactor="1.00" vaporized=""/>
    <tripinfo id="LX_11" depart="2.50" departLane="001_001_1_2" departPos="5.10" departSpeed="11.18" departDelay="0.50" arrival="45.60" arrivalLane="001_002_4_2" arrivalPos="200.00" arrivalSpeed="11.18" duration="43.10" routeLength="418.12" waitingTime="3.90" waitingCount="2" stopTime="0.00" timeLoss="-4714.07" rerouteNo="1" devices="tripinfo_LX_11" vType="car5@LX_11" speedFactor="1.83" vaporized=""/>
    <tripinfo id="RX_40" depart="7.50" departLane="002_001_3_0" departPos="7.10" departSpeed="11.18" departDelay="0.50" arrival="45.60" arrivalLane="002_002_4_0" arrivalPos="200.00" arrivalSpeed="11.18" duration="38.10" routeLength="401.93" waitingTime="0.00" waitingCount="0" stopTime="0.00" timeLoss="-2.80" rerouteNo="1" devices="tripinfo_RX_40" vType="car7@RX_40" speedFactor="1.40" vaporized=""/>
    <tripinfo id="LX_16" depart="3.70" departLane="001_001_1_2" departPos="6.10" departSpeed="11.18" departDelay="0.70" arrival="45.80" arrivalLane="001_002_4_0" arrivalPos="200.00" arrivalSpeed="11.18" duration="42.10" routeLength="426.39" waitingTime="3.00" waitingCount="1" stopTime="0.00" timeLoss="-4182.55" rerouteNo="1" devices="tripinfo_LX_16" vType="car6@LX_16" speedFactor="1.00" vaporized=""/>
    <tripinfo id="RX_33" depart="6.40" departLane="001_001_2_0" departPos="8.10" departSpeed="11.18" departDelay="0.40" arrival="45.80" arrivalLane="000_001_3_0" arrivalPos="200.00" arrivalSpeed="11.18" duration="39.40" routeLength="400.93" waitingTime="2.40" waitingCount="1" stopTime="0.00" timeLoss="0.78" rerouteNo="1" devices="tripinfo_RX_33" vType="car8@RX_33" speedFactor="1.00" vaporized=""/>
    <tripinfo id="SX_37" depart="6.00" departLane="002_001_4_1" departPos="6.10" departSpeed="11.18" departDelay="0.00" arrival="45.90" arrivalLane="002_002_4_2" arrivalPos="200.00" arrivalSpeed="11.18" duration="39.90" routeLength="421.10" waitingTime="0.00" waitingCount="0" stopTime="0.00" timeLoss="-0.18" rerouteNo="1" devices="tripinfo_SX_37" vType="car6@SX_37" speedFactor="1.16" vaporized=""/>
    <tripinfo id="RX_58" depart="10.00" departLane="002_001_4_0" departPos="7.10" departSpeed="11.18" departDelay="0.00" arrival="46.00" arrivalLane="003_001_1_0" arrivalPos="200.00" arrivalSpeed="11.18" duration="36.00" routeLength="401.93" waitingTime="0.00" waitingCount="0" stopTime="0.00" timeLoss="-2.27" rerouteNo="1" devices="tripinfo_RX_58" vType="car7@RX_58" speedFactor="1.43" vaporized=""/>
    <tripinfo id="SX_52" depart="9.00" departLane="002_001_4_1" departPos="9.10" departSpeed="11.18" departDelay="0.00" arrival="46.40" arrivalLane="002_002_4_1" arrivalPos="200.00" arrivalSpeed="11.18" duration="37.40" routeLength="418.10" waitingTime="0.00" waitingCount="0" stopTime="0.00" timeLoss="0.00" rerouteNo="1" devices="tripinfo_SX_52" vType="car9@SX_52" speedFactor="1.34" vaporized=""/>
    <tripinfo id="SX_28" depart="5.00" departLane="001_001_2_1" departPos="8.10" departSpeed="11.18" departDelay="0.00" arrival="46.50" arrivalLane="001_000_2_0" arrivalPos="200.00" arrivalSpeed="11.18" duration="41.50" routeLength="419.10" waitingTime="2.60" waitingCount="1" stopTime="0.00" timeLoss="-4786.81" rerouteNo="1" devices="tripinfo_SX_28" vType="car8@SX_28" speedFactor="1.88" vaporized=""/>
    <tripinfo id="RX_46" depart="8.70" departLane="002_001_3_0" departPos="6.10" departSpeed="11.18" departDelay="0.70" arrival="46.50" arrivalLane="002_002_4_0" arrivalPos="200.00" arrivalSpeed="11.18" duration="37.80" routeLength="402.93" waitingTime="0.00" waitingCount="0" stopTime="0.00" timeLoss="-1.01" rerouteNo="1" devices="tripinfo_RX_46" vType="car6@RX_46" speedFactor="1.05" vaporized=""/>
    <tripinfo id="SX_47" depart="8.50" departLane="002_001_4_1" departPos="9.10" departSpeed="11.18" departDelay="0.50" arrival="46.70" arrivalLane="002_002_4_2" arrivalPos="200.00" arrivalSpeed="11.18" duration="38.20" routeLength="418.10" waitingTime="0.00" waitingCount="0" stopTime="0.00" timeLoss="0.11" rerouteNo="1" devices="tripinfo_SX_47" vType="car9@SX_47" speedFactor="1.00" vaporized=""/>
    <tripinfo id="LX_23" depart="4.50" departLane="001_001_4_2" departPos="7.10" departSpeed="11.18" departDelay="0.50" arrival="46.90" arrivalLane="000_001_3_2" arrivalPos="200.00" arrivalSpeed="11.18" duration="42.40" routeLength="416.11" waitingTime="3.00" waitingCount="2" stopTime="0.00" timeLoss="-4802.10" rerouteNo="1" devices="tripinfo_LX_23" vType="car7@LX_23" speedFactor="1.30" vaporized=""/>
    <tripinfo id="RX_49" depart="9.00" departLane="001_001_2_0" departPos="5.10" departSpeed="11.18" departDelay="0.00" arrival="46.90" arrivalLane="000_001_3_0" arrivalPos="200.00" arrivalSpeed="11.18" duration="37.90" routeLength="403.93" waitingTime="0.30" waitingCount="1" stopTime="0.00" timeLoss="-2.40" rerouteNo="1" devices="tripinfo_RX_49" vType="car5@RX_49" speedFactor="1.20" vaporized=""/>
    <tripinfo id="RX_63" depart="11.10" departLane="002_001_4_0" departPos="5.10" departSpeed="11.18" departDelay="0.10" arrival="47.30" arrivalLane="003_001_1_0" arrivalPos="200.00" arrivalSpeed="11.18" duration="36.20" routeLength="403.93" waitingTime="0.00" waitingCount="0" stopTime="0.00" timeLoss="-2.20" rerouteNo="1" devices="tripinfo_RX_63" vType="car5@RX_63" speedFactor="1.91" vaporized=""/>
    <tripinfo id="RX_62" depart="11.00" departLane="002_001_3_0" departPos="8.10" departSpeed="11.18" departDelay="0.00" arrival="47.40" arrivalLane="002_002_4_0" arrivalPos="200.00" arrivalSpeed="11.18" duration="36.40" routeLength="400.93" waitingTime="0.00" waitingCount="0" stopTime="0.00" timeLoss="-2.25" rerouteNo="1" devices="tripinfo_RX_62" vType="car8@RX_62" speedFactor="1.92" vaporized=""/>
    <tripinfo id="SX_29" depart="5.00" departLane="001_001_4_1" departPos="6.10" departSpeed="11.18" departDelay="0.00" arrival="47.70" arrivalLane="001_002_4_1" arrivalPos="200.00" arrivalSpeed="11.18" duration="42.70" routeLength="421.10" waitingTime="0.00" waitingCount="0" stopTime="0.00" timeLoss="-0.73" rerouteNo="1" devices="tripinfo_SX_29" vType="car6@SX_29" speedFactor="1.00" vaporized=""/>
    <tripinfo id="RX_32" depart="6.50" departLane="001_001_1_0" departPos="8.10" departSpeed="11.18" departDelay="0.50" arrival="47.80" arrivalLane="001_000_2_0" arrivalPos="200.00" arrivalSpeed="11.18" duration="41.30" routeLength="400.93" waitingTime="3.30" waitingCount="2" stopTime="0.00" timeLoss="-4631.47" rerouteNo="1" devices="tripinfo_RX_32" vType="car8@RX_32" speedFactor="1.03" vaporized=""/>
    <tripinfo id="LX_34" depart="6.00" departLane="001_001_4_2" departPos="9.10" departSpeed="11.18" departDelay="0.00" arrival="47.80" arrivalLane="000_001_3_2" arrivalPos="200.00" arrivalSpeed="11.18" duration="41.80" routeLength="414.11" waitingTime="2.30" waitingCount="2" stopTime="0.00" timeLoss="2.28" rerouteNo="1" devices="tripinfo_LX_34" vType="car9@LX_34" speedFactor="1.24" vaporized=""/>
    <tripinfo id="RX_65" depart="12.00" departLane="001_001_2_0" departPos="9.10" departSpeed="11.18" departDelay="0.00" arrival="47.80" arrivalLane="000_001_3_0" arrivalPos="200.00" arrivalSpeed="11.18" duration="35.80" routeLength="399.93" waitingTime="0.00" waitingCount="0" stopTime="0.00" timeLoss="-2.59" rerouteNo="1" devices="tripinfo_RX_65" vType="car9@RX_65" speedFactor="1.10" vaporized=""/>
    <tripinfo id="LX_51" depart="9.00" departLane="002_001_3_2" departPos="5.10" departSpeed="11.18" departDelay="0.00" arrival="47.90" arrivalLane="002_000_2_2" arrivalPos="200.00" arrivalSpeed="11.18" duration="38.90" routeLength="418.12" waitingTime="0.00" waitingCount="0" stopTime="0.00" timeLoss="-2.39" rerouteNo="1" devices="tripinfo_LX_51" vType="car5@LX_51" speedFactor="1.87" vaporized=""/>
    <tripinfo id="SX_61" depart="11.00" departLane="002_001_2_1" departPos="8.10" departSpeed="11.18" departDelay="0.00" arrival="48.70" arrivalLane="002_000_2_0" arrivalPos="200.00" arrivalSpeed="11.18" duration="37.70" routeLength="419.10" waitingTime="0.00" waitingCount="0" stopTime="0.00" timeLoss="-0.00" rerouteNo="1" devices="tripinfo_SX_61" vType="car8@SX_61" speedFactor="1.17" vaporized=""/>
    <tripinfo id="RX_38" depart="7.70" departLane="001_001_1_0" departPos="6.10" departSpeed="11.18" departDelay="0.70" arrival="48.80" arrivalLane="001_000_2_0" arrivalPos="200.00" arrivalSpeed="11.18" duration="41.10" routeLength="402.93" waitingTime="2.80" waitingCount="2" stopTime="0.00" timeLoss="2.40" rerouteNo="1" devices="tripinfo_RX_38" vType="car6@RX_38" speedFactor="1.10" vaporized=""/>
    <tripinfo id="RX_69" depart="12.40" departLane="002_001_4_0" departPos="7.10" departSpeed="11.18" departDelay="0.40" arrival="49.10" arrivalLane="003_001_1_0" arrivalPos="200.00" arrivalSpeed="11.18" duration="36.70" routeLength="401.93" waitingTime="0.00" waitingCount="0" stopTime="0.00" timeLoss="-2.28" rerouteNo="1" devices="tripinfo_RX_69" vType="car7@RX_69" speedFactor="1.43" vaporized=""/>
    <tripinfo id="RX_71" depart="13.50" departLane="001_001_2_0" departPos="9.10" departSpeed="11.18" departDelay="0.50" arrival="49.40" arrivalLane="000_001_3_0" arrivalPos="200.00" arrivalSpeed="11.18" duration="35.90" routeLength="399.93" waitingTime="0.00" waitingCount="0" stopTime="0.00" timeLoss="-2.11" rerouteNo="1" devices="tripinfo_RX_71" vType="car9@RX_71" speedFactor="1.73" vaporized=""/>
    <tripinfo id="LX_56" depart="10.00" departLane="002_001_2_2" departPos="8.10" departSpeed="11.18" departDelay="0.00" arrival="50.10" arrivalLane="003_001_1_2" arrivalPos="200.00" arrivalSpeed="11.18" duration="40.10" routeLength="415.11" waitingTime="0.00" waitingCount="0" stopTime="0.00" timeLoss="-2.69" rerouteNo="1" devices="tripinfo_LX_56" vType="car8@LX_56" speedFactor="1.00" vaporized=""/>
    <tripinfo id="SX_66" depart="12.00" departLane="001_001_4_1" departPos="9.10" departSpeed="11.18" departDelay="0.00" arrival="50.30" arrivalLane="001_002_4_1" arrivalPos="200.00" arrivalSpeed="11.18" duration="38.30" routeLength="418.10" waitingTime="0.00" waitingCount="0" stopTime="0.00" timeLoss="-0.01" rerouteNo="1" devices="tripinfo_SX_66" vType="car9@SX_66" speedFactor="1.97" vaporized=""/>
    <tripinfo id="LX_27" depart="5.00" departLane="001_001_1_2" departPos="7.10" departSpeed="11.18" departDelay="0.00" arrival="50.60" arrivalLane="001_002_4_2" arrivalPos="200.00" arrivalSpeed="11.18" duration="45.60" routeLength="416.12" waitingTime="6.00" waitingCount="2" stopTime="0.00" timeLoss="-4550.97" rerouteNo="1" devices="tripinfo_LX_27" vType="car7@LX_27" speedFactor="1.43" vaporized=""/>
    <tripinfo id="RX_81" depart="15.00" departLane="001_001_1_0" departPos="7.10" departSpeed="11.18" departDelay="0.00" arrival="51.00" arrivalLane="001_000_2_0" arrivalPos="200.00" arrivalSpeed="11.18" duration="36.00" routeLength="401.93" waitingTime="0.00" waitingCount="0" stopTime="0.00" timeLoss="-2.62" rerouteNo="1" devices="tripinfo_RX_81" vType="car7@RX_81" speedFactor="1.04" vaporized=""/>
    <tripinfo id="LX_67" depart="12.00" departLane="002_001_2_2" departPos="8.10" departSpeed="11.18" departDelay="0.00" arrival="51.20" arrivalLane="003_001_1_2" arrivalPos="200.00" arrivalSpeed="11.18" duration="39.20" routeLength="415.11" waitingTime="0.00" waitingCount="0" stopTime="0.00" timeLoss="-0.50" rerouteNo="1" devices="tripinfo_LX_67" vType="car8@LX_67" speedFactor="1.65" vaporized=""/>
    <tripinfo id="LX_42" depart="8.00" departLane="001_001_1_2" departPos="7.10" departSpeed="11.18" departDelay="0.00" arrival="51.50" arrivalLane="001_002_4_2" arrivalPos="200.00" arrivalSpeed="11.18" duration="43.50" routeLength="416.12" waitingTime="3.80" waitingCount="2" stopTime="0.00" timeLoss="3.81" rerouteNo="1" devices="tripinfo_LX_42" vType="car7@LX_42" speedFactor="1.23" vaporized=""/>
    <tripinfo id="RX_87" depart="16.00" departLane="001_001_2_0" departPos="9.10" departSpeed="11.18" departDelay="0.00" arrival="51.80" arrivalLane="000_001_3_0" arrivalPos="200.00" arrivalSpeed="11.18" duration="35.80" routeLength="399.93" waitingTime="0.00" waitingCount="0" stopTime="0.00" timeLoss="-2.21" rerouteNo="1" devices="tripinfo_RX_87" vType="car9@RX_87" speedFactor="1.61" vaporized=""/>
    <tripinfo id="RX_90" depart="16.00" departLane="002_001_3_0" departPos="8.10" departSpeed="11.18" departDelay="0.00" arrival="51.90" arrivalLane="002_002_4_0" arrivalPos="200.00" arrivalSpeed="11.18" duration="35.90" routeLength="400.93" waitingTime="0.00" waitingCount="0" stopTime="0.00" timeLoss="-2.35" rerouteNo="1" devices="tripinfo_RX_90" vType="car8@RX_90" speedFactor="1.32" vaporized=""/>
    <tripinfo id="LX_44" depart="8.00" departLane="001_001_4_2" departPos="5.10" departSpeed="11.18" departDelay="0.00" arrival="52.10" arrivalLane="000_001_3_2" arrivalPos="200.00" arrivalSpeed="11.18" duration="44.10" routeLength="418.11" waitingTime="4.40" waitingCount="2" stopTime="0.00" timeLoss="-4143.04" rerouteNo="1" devices="tripinfo_LX_44" vType="car5@LX_44" speedFactor="1.00" vaporized=""/>
    <tripinfo id="RX_91" depart="16.00" departLane="002_001_4_0" departPos="6.10" departSpeed="11.18" departDelay="0.00" arrival="52.10" arrivalLane="003_001_1_0" arrivalPos="200.00" arrivalSpeed="11.18" duration="36.10" routeLength="402.93" waitingTime="0.00" waitingCount="0" stopTime="0.00" timeLoss="-2.20" rerouteNo="1" devices="tripinfo_RX_91" vType="car6@RX_91" speedFactor="1.68" vaporized=""/>
    <tripinfo id="SX_60" depart="11.00" departLane="001_001_4_1" departPos="6.10" departSpeed="11.18" departDelay="0.00" arrival="53.30" arrivalLane="001_002_4_2" arrivalPos="200.00" arrivalSpeed="11.18" duration="42.30" routeLength="421.10" waitingTime="2.40" waitingCount="1" stopTime="0.00" timeLoss="4.41" rerouteNo="1" devices="tripinfo_SX_60" vType="car6@SX_60" speedFactor="1.22" vaporized=""/>
    <tripinfo id="RX_92" depart="17.00" departLane="001_001_1_0" departPos="8.10" departSpeed="11.18" departDelay="0.00" arrival="53.50" arrivalLane="001_000_2_0" arrivalPos="200.00" arrivalSpeed="11.18" duration="36.50" routeLength="400.93" waitingTime="0.00" waitingCount="0" stopTime="0.00" timeLoss="-2.42" rerouteNo="1" devices="tripinfo_RX_92" vType="car8@RX_92" speedFactor="1.24" vaporized=""/>
    <tripinfo id="RX_98" depart="18.00" departLane="002_001_3_0" departPos="8.10" departSpeed="11.18" departDelay="0.00" arrival="53.90" arrivalLane="002_002_4_0" arrivalPos="200.00" arrivalSpeed="11.18" duration="35.90" routeLength="400.93" waitingTime="0.00" waitingCount="0" stopTime="0.00" timeLoss="-2.21" rerouteNo="1" devices="tripinfo_RX_98" vType="car8@RX_98" speedFactor="1.82" vaporized=""/>
    <tripinfo id="SX_74" depart="13.00" departLane="002_001_4_1" departPos="7.10" departSpeed="11.18" departDelay="0.00" arrival="54.70" arrivalLane="002_002_4_1" arrivalPos="200.00" arrivalSpeed="11.18" duration="41.70" routeLength="420.10" waitingTime="0.00" waitingCount="0" stopTime="0.00" timeLoss="-0.27" rerouteNo="1" devices="tripinfo_SX_74" vType="car7@SX_74" speedFactor="1.65" vaporized=""/>
    <tripinfo id="RX_105" depart="19.00" departLane="002_001_4_0" departPos="5.10" departSpeed="11.18" departDelay="0.00" arrival="55.20" arrivalLane="003_001_1_0" arrivalPos="200.00" arrivalSpeed="11.18" duration="36.20" routeLength="403.93" waitingTime="0.00" waitingCount="0" stopTime="0.00" timeLoss="-2.67" rerouteNo="1" devices="tripinfo_RX_105" vType="car5@RX_105" speedFactor="1.00" vaporized=""/>
    <tripinfo id="SX_54" depart="10.00" departLane="001_001_2_1" departPos="9.10" departSpeed="11.18" departDelay="0.00" arrival="55.30" arrivalLane="001_000_2_1" arrivalPos="200.00" arrivalSpeed="11.18" duration="45.30" routeLength="418.10" waitingTime="0.00" waitingCount="0" stopTime="0.00" timeLoss="-1.80" rerouteNo="1" devices="tripinfo_SX_54" vType="car9@SX_54" speedFactor="1.17" vaporized=""/>
    <tripinfo id="RX_104" depart="19.20" departLane="002_001_3_0" departPos="6.10" departSpeed="11.18" departDelay="0.20" arrival="55.30" arrivalLane="002_002_4_0" arrivalPos="200.00" arrivalSpeed="11.18" duration="36.10" routeLength="402.93" waitingTime="0.00" waitingCount="0" stopTime="0.00" timeLoss="-2.20" rerouteNo="1" devices="tripinfo_RX_104" vType="car6@RX_104" speedFactor="1.71" vaporized=""/>
    <tripinfo id="LX_72" depart="13.40" departLane="002_001_2_2" departPos="8.10" departSpeed="11.18" departDelay="0.40" arrival="55.50" arrivalLane="003_001_1_1" arrivalPos="200.00" arrivalSpeed="11.18" duration="42.10" routeLength="420.00" waitingTime="3.20" waitingCount="1" stopTime="0.00" timeLoss="-4797.10" rerouteNo="1" devices="tripinfo_LX_72" vType="car8@LX_72" speedFactor="1.14" vaporized=""/>
    <tripinfo id="SX_77" depart="14.00" departLane="001_001_4_1" departPos="7.10" departSpeed="11.18" departDelay="0.00" arrival="56.10" arrivalLane="001_002_4_2" arrivalPos="200.00" arrivalSpeed="11.18" duration="42.10" routeLength="420.10" waitingTime="2.30" waitingCount="2" stopTime="0.00" timeLoss="-4388.16" rerouteNo="1" devices="tripinfo_SX_77" vType="car7@SX_77" speedFactor="1.99" vaporized=""/>
    <tripinfo id="SR_4" depart="0.00" departLane="002_001_3_1" departPos="6.10" departSpeed="11.18" departDelay="0.00" arrival="56.40" arrivalLane="001_002_4_0" arrivalPos="200.00" arrivalSpeed="11.18" duration="56.40" routeLength="630.13" waitingTime="0.00" waitingCount="0" stopTime="0.00" timeLoss="-2.36" rerouteNo="2" devices="tripinfo_SR_4" vType="car6@SR_4" speedFactor="1.30" vaporized=""/>
    <tripinfo id="SX_93" depart="17.00" departLane="002_001_2_1" departPos="9.10" departSpeed="11.18" departDelay="0.00" arrival="56.40" arrivalLane="002_000_2_1" arrivalPos="200.00" arrivalSpeed="11.18" duration="39.40" routeLength="418.10" waitingTime="0.80" waitingCount="1" stopTime="0.00" timeLoss="1.91" rerouteNo="1" devices="tripinfo_SX_93" vType="car9@SX_93" speedFactor="1.37" vaporized=""/>
    <tripinfo id="RX_108" depart="20.70" departLane="002_001_3_0" departPos="9.10" departSpeed="11.18" departDelay="0.70" arrival="56.90" arrivalLane="002_002_4_0" arrivalPos="200.00" arrivalSpeed="11.18" duration="36.20" routeLength="399.93" waitingTime="0.00" waitingCount="0" stopTime="0.00" timeLoss="-2.21" rerouteNo="1" devices="tripinfo_RX_108" vType="car9@RX_108" speedFactor="1.78" vaporized=""/>
    <tripinfo id="LX_79" depart="14.30" departLane="002_001_3_2" departPos="7.10" departSpeed="11.18" departDelay="0.30" arrival="57.20" arrivalLane="002_000_2_2" arrivalPos="200.00" arrivalSpeed="11.18" duration="42.90" routeLength="416.12" waitingTime="1.70" waitingCount="1" stopTime="0.00" timeLoss="-4341.88" rerouteNo="1" devices="tripinfo_LX_79" vType="car7@LX_79" speedFactor="1.96" vaporized=""/>
    <tripinfo id="SX_97" depart="18.50" departLane="002_001_2_1" departPos="9.10" departSpeed="11.18" departDelay="0.50" arrival="57.50" arrivalLane="002_000_2_1" arrivalPos="200.00" arrivalSpeed="11.18" duration="39.00" routeLength="418.10" waitingTime="0.10" waitingCount="1" stopTime="0.00" timeLoss="1.55" rerouteNo="1" devices="tripinfo_SX_97" vType="car9@SX_97" speedFactor="1.00" vaporized=""/>
    <tripinfo id="LX_103" depart="19.00" departLane="002_001_2_2" departPos="6.10" departSpeed="11.18" departDelay="0.00" arrival="57.60" arrivalLane="003_001_1_2" arrivalPos="200.00" arrivalSpeed="11.18" duration="38.60" routeLength="417.11" waitingTime="0.00" waitingCount="0" stopTime="0.00" timeLoss="-2.41" rerouteNo="1" devices="tripinfo_LX_103" vType="car6@LX_103" speedFactor="1.05" vaporized=""/>
    <tripinfo id="RS_3" depart="0.00" departLane="002_001_2_0" departPos="6.10" departSpeed="11.18" departDelay="0.00" arrival="57.70" arrivalLane="000_001_3_2" arrivalPos="200.00" arrivalSpeed="11.18" duration="57.70" routeLength="630.13" waitingTime="0.00" waitingCount="0" stopTime="0.00" timeLoss="-0.16" rerouteNo="2" devices="tripinfo_RS_3" vType="car6@RS_3" speedFactor="1.83" vaporized=""/>
    <tripinfo id="RX_119" depart="22.20" departLane="002_001_3_0" departPos="9.10" departSpeed="11.18" departDelay="0.20" arrival="58.10" arrivalLane="002_002_4_0" arrivalPos="200.00" arrivalSpeed="11.18" duration="35.90" routeLength="399.93" waitingTime="0.00" waitingCount="0" stopTime="0.00" timeLoss="-2.22" rerouteNo="1" devices="tripinfo_RX_119" vType="car9@RX_119" speedFactor="1.83" vaporized=""/>
    <tripinfo id="RR_24" depart="4.00" departLane="002_001_2_0" departPos="9.10" departSpeed="11.18" departDelay="0.00" arrival="59.00" arrivalLane="001_002_4_0" arrivalPos="200.00" arrivalSpeed="11.18" duration="55.00" routeLength="608.96" waitingTime="0.00" waitingCount="0" stopTime="0.00" timeLoss="-3.77" rerouteNo="2" devices="tripinfo_RR_24" vType="car9@RR_24" speedFactor="1.00" vaporized=""/>