<?xml version="1.0" encoding="UTF-8"?>

<!-- generated on 03/24/20 20:10:04 by Eclipse SUMO GUI Version 1.3.1
<configuration xmlns:xsi="http://www.w3.org/2001/XMLSchema-instance" xsi:noNamespaceSchemaLocation="http://sumo.dlr.de/xsd/sumoConfiguration.xsd">

    <input>
        <net-file value="data/lane3.net.xml"/>
        <route-files value="data/icacc+.rou.xml"/>
        <additional-files value="data/icacc+.det.xml"/>
    </input>

    <output>
        <tripinfo-output value="tripinfo.xml"/>
    </output>

    <time>
        <begin value="0"/>
        <step-length value="0.1"/>
    </time>

    <processing>
        <collision.mingap-factor value="0"/>
    </processing>

    <report>
        <verbose value="true"/>
        <no-step-log value="true"/>
    </report>

    <traci_server>
        <remote-port value="14100"/>
    </traci_server>

    <gui_only>
        <start value="true"/>
        <tracker-interval value="0.1"/>
    </gui_only>

</configuration>
-->

<tripinfos xmlns:xsi="http://www.w3.org/2001/XMLSchema-instance" xsi:noNamespaceSchemaLocation="http://sumo.dlr.de/xsd/tripinfo_file.xsd">
    <tripinfo id="R_1" depart="0.00" departLane="2_1" departPos="7.10" departSpeed="0.00" departDelay="0.00" arrival="36.80" arrivalLane="-1_2" arrivalPos="200.00" arrivalSpeed="11.18" duration="36.80" routeLength="408.39" waitingTime="0.00" waitingCount="0" stopTime="0.00" timeLoss="-2.56" rerouteNo="0" devices="tripinfo_R_1" vType="car7@R_1" speedFactor="0.94" vaporized=""/>
    <tripinfo id="S_0" depart="0.00" departLane="1_2" departPos="8.10" departSpeed="0.00" departDelay="0.00" arrival="37.50" arrivalLane="-3_1" arrivalPos="200.00" arrivalSpeed="11.18" duration="37.50" routeLength="414.30" waitingTime="0.00" waitingCount="0" stopTime="0.00" timeLoss="-0.24" rerouteNo="0" devices="tripinfo_S_0" vType="car8@S_0" speedFactor="1.06" vaporized=""/>
    <tripinfo id="L_3" depart="0.00" departLane="4_2" departPos="7.10" departSpeed="0.00" departDelay="0.00" arrival="38.10" arrivalLane="-1_0" arrivalPos="200.00" arrivalSpeed="11.18" duration="38.10" routeLength="422.16" waitingTime="0.00" waitingCount="0" stopTime="0.00" timeLoss="-2.11" rerouteNo="0" devices="tripinfo_L_3" vType="car7@L_3" speedFactor="1.08" vaporized=""/>
    <tripinfo id="L_2" depart="0.00" departLane="3_2" departPos="5.10" departSpeed="0.00" departDelay="0.00" arrival="38.90" arrivalLane="-4_2" arrivalPos="200.00" arrivalSpeed="11.18" duration="38.90" routeLength="414.45" waitingTime="0.70" waitingCount="1" stopTime="0.00" timeLoss="-4182.33" rerouteNo="0" devices="tripinfo_L_2" vType="car5@L_2" speedFactor="1.01" vaporized=""/>
    <tripinfo id="L_4" depart="1.00" departLane="1_0" departPos="7.10" departSpeed="0.00" departDelay="0.00" arrival="38.90" arrivalLane="-2_2" arrivalPos="200.00" arrivalSpeed="11.18" duration="37.90" routeLength="412.45" waitingTime="0.00" waitingCount="0" stopTime="0.00" timeLoss="-3.98" rerouteNo="0" devices="tripinfo_L_4" vType="car7@L_4" speedFactor="1.03" vaporized=""/>
    <tripinfo id="L_6" depart="1.00" departLane="3_0" departPos="5.10" departSpeed="0.00" departDelay="0.00" arrival="40.80" arrivalLane="-4_1" arrivalPos="200.00" arrivalSpeed="11.18" duration="39.80" routeLength="419.34" waitingTime="1.10" waitingCount="1" stopTime="0.00" timeLoss="-4182.21" rerouteNo="0" devices="tripinfo_L_6" vType="car5@L_6" speedFactor="1.05" vaporized=""/>
    <tripinfo id="S_7" depart="1.00" departLane="4_2" departPos="6.10" departSpeed="0.00" departDelay="0.00" arrival="40.80" arrivalLane="-2_1" arrivalPos="200.00" arrivalSpeed="11.18" duration="39.80" routeLength="416.30" waitingTime="1.60" waitingCount="1" stopTime="0.00" timeLoss="-4295.57" rerouteNo="0" devices="tripinfo_S_7" vType="car6@S_7" speedFactor="0.89" vaporized=""/>
    <tripinfo id="R_13" depart="3.00" departLane="2_2" departPos="9.10" departSpeed="0.00" departDelay="0.00" arrival="41.20" arrivalLane="-1_0" arrivalPos="200.00" arrivalSpeed="11.18" duration="38.20" routeLength="396.06" waitingTime="1.40" waitingCount="1" stopTime="0.00" timeLoss="0.16" rerouteNo="0" devices="tripinfo_R_13" vType="car9@R_13" speedFactor="1.12" vaporized=""/>
    <tripinfo id="L_5" depart="1.00" departLane="2_0" departPos="9.10" departSpeed="0.00" departDelay="0.00" arrival="42.40" arrivalLane="-3_0" arrivalPos="200.00" arrivalSpeed="11.18" duration="41.40" routeLength="420.16" waitingTime="2.50" waitingCount="1" stopTime="0.00" timeLoss="-4653.76" rerouteNo="0" devices="tripinfo_L_5" vType="car9@L_5" speedFactor="0.83" vaporized=""/>
    <tripinfo id="S_10" depart="2.00" departLane="3_0" departPos="6.10" departSpeed="0.00" departDelay="0.00" arrival="42.90" arrivalLane="-1_0" arrivalPos="200.00" arrivalSpeed="11.18" duration="40.90" routeLength="416.30" waitingTime="2.70" waitingCount="1" stopTime="0.00" timeLoss="-4295.57" rerouteNo="0" devices="tripinfo_S_10" vType="car6@S_10" speedFactor="1.09" vaporized=""/>
    <tripinfo id="S_8" depart="2.00" departLane="1_1" departPos="5.10" departSpeed="0.00" departDelay="0.00" arrival="43.90" arrivalLane="-3_0" arrivalPos="200.00" arrivalSpeed="11.18" duration="41.90" routeLength="417.30" waitingTime="3.50" waitingCount="1" stopTime="0.00" timeLoss="-4088.07" rerouteNo="0" devices="tripinfo_S_8" vType="car5@S_8" speedFactor="0.94" vaporized=""/>
    <tripinfo id="R_21" depart="5.00" departLane="2_1" departPos="7.10" departSpeed="0.00" departDelay="0.00" arrival="44.00" arrivalLane="-1_1" arrivalPos="200.00" arrivalSpeed="11.18" duration="39.00" routeLength="403.22" waitingTime="1.10" waitingCount="1" stopTime="0.00" timeLoss="-4345.14" rerouteNo="0" devices="tripinfo_R_21" vType="car7@R_21" speedFactor="1.01" vaporized=""/>
    <tripinfo id="R_15" depart="3.00" departLane="4_2" departPos="7.10" departSpeed="0.00" departDelay="0.00" arrival="44.70" arrivalLane="-3_0" arrivalPos="200.00" arrivalSpeed="11.18" duration="41.70" routeLength="398.06" waitingTime="5.10" waitingCount="1" stopTime="0.00" timeLoss="-4408.28" rerouteNo="0" devices="tripinfo_R_15" vType="car7@R_15" speedFactor="0.93" vaporized=""/>
    <tripinfo id="L_19" depart="4.00" departLane="4_2" departPos="7.10" departSpeed="0.00" departDelay="0.00" arrival="45.40" arrivalLane="-1_2" arrivalPos="200.00" arrivalSpeed="11.18" duration="41.40" routeLength="412.45" waitingTime="3.40" waitingCount="1" stopTime="0.00" timeLoss="-4407.72" rerouteNo="0" devices="tripinfo_L_19" vType="car7@L_19" speedFactor="1.16" vaporized=""/>
    <tripinfo id="L_14" depart="3.00" departLane="3_0" departPos="8.10" departSpeed="0.00" departDelay="0.00" arrival="45.60" arrivalLane="-4_2" arrivalPos="200.00" arrivalSpeed="11.18" duration="42.60" routeLength="411.45" waitingTime="2.30" waitingCount="1" stopTime="0.00" timeLoss="-4668.81" rerouteNo="0" devices="tripinfo_L_14" vType="car8@L_14" speedFactor="0.99" vaporized=""/>
    <tripinfo id="R_11" depart="2.00" departLane="4_0" departPos="5.10" departSpeed="0.00" departDelay="0.00" arrival="45.70" arrivalLane="-3_0" arrivalPos="200.00" arrivalSpeed="11.18" duration="43.70" routeLength="400.06" waitingTime="2.80" waitingCount="1" stopTime="0.00" timeLoss="5.18" rerouteNo="0" devices="tripinfo_R_11" vType="car5@R_11" speedFactor="1.03" vaporized=""/>
    <tripinfo id="R_34" depart="8.00" departLane="3_0" departPos="7.10" departSpeed="0.00" departDelay="0.00" arrival="46.00" arrivalLane="-2_0" arrivalPos="200.00" arrivalSpeed="11.18" duration="38.00" routeLength="398.06" waitingTime="0.00" waitingCount="0" stopTime="0.00" timeLoss="-0.37" rerouteNo="0" devices="tripinfo_R_34" vType="car7@R_34" speedFactor="0.99" vaporized=""/>
    <tripinfo id="L_18" depart="4.00" departLane="3_1" departPos="5.10" departSpeed="0.00" departDelay="0.00" arrival="46.70" arrivalLane="-4_2" arrivalPos="200.00" arrivalSpeed="11.18" duration="42.70" routeLength="414.45" waitingTime="1.50" waitingCount="2" stopTime="0.00" timeLoss="2.99" rerouteNo="0" devices="tripinfo_L_18" vType="car5@L_18" speedFactor="0.94" vaporized=""/>
    <tripinfo id="R_23" depart="5.00" departLane="4_1" departPos="5.10" departSpeed="0.00" departDelay="0.00" arrival="47.20" arrivalLane="-3_1" arrivalPos="200.00" arrivalSpeed="11.18" duration="42.20" routeLength="405.22" waitingTime="2.60" waitingCount="1" stopTime="0.00" timeLoss="-4380.31" rerouteNo="0" devices="tripinfo_R_23" vType="car5@R_23" speedFactor="0.89" vaporized=""/>
    <tripinfo id="L_12" depart="3.00" departLane="1_1" departPos="8.10" departSpeed="0.00" departDelay="0.00" arrival="47.60" arrivalLane="-2_2" arrivalPos="200.00" arrivalSpeed="11.18" duration="44.60" routeLength="411.45" waitingTime="4.30" waitingCount="1" stopTime="0.00" timeLoss="-4668.70" rerouteNo="0" devices="tripinfo_L_12" vType="car8@L_12" speedFactor="1.05" vaporized=""/>
    <tripinfo id="R_39" depart="10.20" departLane="4_2" departPos="9.10" departSpeed="0.00" departDelay="1.20" arrival="48.20" arrivalLane="-3_0" arrivalPos="200.00" arrivalSpeed="11.18" duration="38.00" routeLength="396.06" waitingTime="0.10" waitingCount="1" stopTime="0.00" timeLoss="-0.26" rerouteNo="0" devices="tripinfo_R_39" vType="car9@R_39" speedFactor="0.90" vaporized=""/>
    <tripinfo id="R_25" depart="6.30" departLane="2_1" departPos="5.10" departSpeed="0.00" departDelay="0.30" arrival="48.50" arrivalLane="-1_0" arrivalPos="200.00" arrivalSpeed="11.18" duration="42.20" routeLength="400.06" waitingTime="2.80" waitingCount="2" stopTime="0.00" timeLoss="3.52" rerouteNo="0" devices="tripinfo_R_25" vType="car5@R_25" speedFactor="0.87" vaporized=""/>
    <tripinfo id="S_16" depart="4.80" departLane="1_2" departPos="6.10" departSpeed="0.00" departDelay="0.80" arrival="48.80" arrivalLane="-3_2" arrivalPos="200.00" arrivalSpeed="11.18" duration="44.00" routeLength="416.30" waitingTime="3.60" waitingCount="2" stopTime="0.00" timeLoss="6.67" rerouteNo="0" devices="tripinfo_S_16" vType="car6@S_16" speedFactor="0.88" vaporized=""/>
    <tripinfo id="S_9" depart="2.00" departLane="2_1" departPos="7.10" departSpeed="0.00" departDelay="0.00" arrival="49.00" arrivalLane="-4_0" arrivalPos="200.00" arrivalSpeed="11.18" duration="47.00" routeLength="415.30" waitingTime="4.10" waitingCount="1" stopTime="0.00" timeLoss="-4752.26" rerouteNo="0" devices="tripinfo_S_9" vType="car7@S_9" speedFactor="0.86" vaporized=""/>
    <tripinfo id="R_37" depart="10.70" departLane="2_0" departPos="6.10" departSpeed="0.00" departDelay="1.70" arrival="49.30" arrivalLane="-1_0" arrivalPos="200.00" arrivalSpeed="11.18" duration="38.60" routeLength="399.06" waitingTime="0.20" waitingCount="1" stopTime="0.00" timeLoss="0.29" rerouteNo="0" devices="tripinfo_R_37" vType="car6@R_37" speedFactor="1.18" vaporized=""/>
    <tripinfo id="S_17" depart="4.00" departLane="2_2" departPos="9.10" departSpeed="0.00" departDelay="0.00" arrival="49.90" arrivalLane="-4_2" arrivalPos="200.00" arrivalSpeed="11.18" duration="45.90" routeLength="413.30" waitingTime="5.60" waitingCount="1" stopTime="0.00" timeLoss="-4751.84" rerouteNo="0" devices="tripinfo_S_17" vType="car9@S_17" speedFactor="0.94" vaporized=""/>
    <tripinfo id="R_20" depart="5.00" departLane="1_1" departPos="8.10" departSpeed="0.00" departDelay="0.00" arrival="50.20" arrivalLane="-4_1" arrivalPos="200.00" arrivalSpeed="11.18" duration="45.20" routeLength="402.22" waitingTime="5.80" waitingCount="1" stopTime="0.00" timeLoss="-4669.07" rerouteNo="0" devices="tripinfo_R_20" vType="car8@R_20" speedFactor="1.02" vaporized=""/>
    <tripinfo id="R_29" depart="8.40" departLane="2_0" departPos="7.10" departSpeed="0.00" departDelay="1.40" arrival="50.70" arrivalLane="-1_1" arrivalPos="200.00" arrivalSpeed="11.18" duration="42.30" routeLength="403.22" waitingTime="0.70" waitingCount="2" stopTime="0.00" timeLoss="-0.78" rerouteNo="0" devices="tripinfo_R_29" vType="car7@R_29" speedFactor="0.93" vaporized=""/>
    <tripinfo id="R_24" depart="7.20" departLane="1_2" departPos="9.10" departSpeed="0.00" departDelay="1.20" arrival="51.30" arrivalLane="-4_1" arrivalPos="200.00" arrivalSpeed="11.18" duration="44.10" routeLength="401.22" waitingTime="4.60" waitingCount="2" stopTime="0.00" timeLoss="5.16" rerouteNo="0" devices="tripinfo_R_24" vType="car9@R_24" speedFactor="0.83" vaporized=""/>
    <tripinfo id="L_27" depart="6.00" departLane="4_2" departPos="6.10" departSpeed="0.00" departDelay="0.00" arrival="51.90" arrivalLane="-1_2" arrivalPos="200.00" arrivalSpeed="11.18" duration="45.90" routeLength="413.45" waitingTime="4.60" waitingCount="1" stopTime="0.00" timeLoss="-4735.68" rerouteNo="0" devices="tripinfo_L_27" vType="car6@L_27" speedFactor="0.95" vaporized=""/>
    <tripinfo id="L_30" depart="7.00" departLane="3_0" departPos="8.10" departSpeed="0.00" departDelay="0.00" arrival="51.90" arrivalLane="-4_2" arrivalPos="200.00" arrivalSpeed="11.18" duration="44.90" routeLength="411.45" waitingTime="3.70" waitingCount="2" stopTime="0.00" timeLoss="-4007.39" rerouteNo="0" devices="tripinfo_L_30" vType="car8@L_30" speedFactor="1.18" vaporized=""/>
    <tripinfo id="R_36" depart="9.60" departLane="1_1" departPos="8.10" departSpeed="0.00" departDelay="0.60" arrival="52.70" arrivalLane="-4_0" arrivalPos="200.00" arrivalSpeed="11.18" duration="43.10" routeLength="397.06" waitingTime="4.20" waitingCount="2" stopTime="0.00" timeLoss="-4668.95" rerouteNo="0" devices="tripinfo_R_36" vType="car8@R_36" speedFactor="0.97" vaporized=""/>
    <tripinfo id="R_40" depart="10.00" departLane="1_2" departPos="8.10" departSpeed="0.00" departDelay="0.00" arrival="53.80" arrivalLane="-4_0" arrivalPos="200.00" arrivalSpeed="11.18" duration="43.80" routeLength="397.06" waitingTime="3.10" waitingCount="4" stopTime="0.00" timeLoss="5.58" rerouteNo="0" devices="tripinfo_R_40" vType="car8@R_40" speedFactor="1.03" vaporized=""/>
    <tripinfo id="L_28" depart="7.40" departLane="1_2" departPos="7.10" departSpeed="0.00" departDelay="0.40" arrival="53.90" arrivalLane="-2_2" arrivalPos="200.00" arrivalSpeed="11.18" duration="46.50" routeLength="412.45" waitingTime="5.10" waitingCount="2" stopTime="0.00" timeLoss="-3953.51" rerouteNo="0" devices="tripinfo_L_28" vType="car7@L_28" speedFactor="1.13" vaporized=""/>
    <tripinfo id="L_35" depart="8.00" departLane="4_1" departPos="6.10" departSpeed="0.00" departDelay="0.00" arrival="54.20" arrivalLane="-1_2" arrivalPos="200.00" arrivalSpeed="11.18" duration="46.20" routeLength="413.45" waitingTime="5.10" waitingCount="2" stopTime="0.00" timeLoss="-4094.44" rerouteNo="0" devices="tripinfo_L_35" vType="car6@L_35" speedFactor="1.02" vaporized=""/>
    <tripinfo id="R_32" depart="9.50" departLane="1_1" departPos="7.10" departSpeed="0.00" departDelay="1.50" arrival="54.90" arrivalLane="-4_0" arrivalPos="200.00" arrivalSpeed="11.18" duration="45.40" routeLength="398.06" waitingTime="1.80" waitingCount="3" stopTime="0.00" timeLoss="7.05" rerouteNo="0" devices="tripinfo_R_32" vType="car7@R_32" speedFactor="1.01" vaporized=""/>
    <tripinfo id="S_45" depart="11.00" departLane="2_2" departPos="7.10" departSpeed="0.00" departDelay="0.00" arrival="55.70" arrivalLane="-4_1" arrivalPos="200.00" arrivalSpeed="11.18" duration="44.70" routeLength="415.30" waitingTime="2.40" waitingCount="4" stopTime="0.00" timeLoss="-4777.45" rerouteNo="0" devices="tripinfo_S_45" vType="car7@S_45" speedFactor="1.09" vaporized=""/>
    <tripinfo id="S_33" depart="8.70" departLane="2_0" departPos="9.10" departSpeed="0.00" departDelay="0.70" arrival="56.10" arrivalLane="-4_2" arrivalPos="200.00" arrivalSpeed="11.18" duration="47.40" routeLength="413.30" waitingTime="5.90" waitingCount="3" stopTime="0.00" timeLoss="-4567.27" rerouteNo="0" devices="tripinfo_S_33" vType="car9@S_33" speedFactor="1.17" vaporized=""/>
    <tripinfo id="R_41" depart="12.50" departLane="2_0" departPos="5.10" departSpeed="0.00" departDelay="2.50" arrival="56.30" arrivalLane="-1_1" arrivalPos="200.00" arrivalSpeed="11.18" duration="43.80" routeLength="405.22" waitingTime="3.10" waitingCount="3" stopTime="0.00" timeLoss="4.73" rerouteNo="0" devices="tripinfo_R_41" vType="car5@R_41" speedFactor="0.96" vaporized=""/>
    <tripinfo id="L_22" depart="6.90" departLane="3_2" departPos="7.10" departSpeed="0.00" departDelay="1.90" arrival="57.30" arrivalLane="-4_2" arrivalPos="200.00" arrivalSpeed="11.18" duration="50.40" routeLength="412.45" waitingTime="7.50" waitingCount="4" stopTime="0.00" timeLoss="-4480.58" rerouteNo="0" devices="tripinfo_L_22" vType="car7@L_22" speedFactor="0.98" vaporized=""/>
    <tripinfo id="L_42" depart="10.00" departLane="3_0" departPos="5.10" departSpeed="0.00" departDelay="0.00" arrival="58.30" arrivalLane="-4_2" arrivalPos="200.00" arrivalSpeed="11.18" duration="48.30" routeLength="414.45" waitingTime="4.80" waitingCount="3" stopTime="0.00" timeLoss="8.79" rerouteNo="0" devices="tripinfo_L_42" vType="car5@L_42" speedFactor="1.09" vaporized=""/>
    <tripinfo id="R_43" depart="10.00" departLane="4_1" departPos="5.10" departSpeed="0.00" departDelay="0.00" arrival="58.30" arrivalLane="-3_0" arrivalPos="200.00" arrivalSpeed="11.18" duration="48.30" routeLength="400.06" waitingTime="6.20" waitingCount="6" stopTime="0.00" timeLoss="9.80" rerouteNo="0" devices="tripinfo_R_43" vType="car5@R_43" speedFactor="1.04" vaporized=""/>
    <tripinfo id="S_31" depart="10.10" departLane="4_2" departPos="8.10" departSpeed="0.00" departDelay="3.10" arrival="58.70" arrivalLane="-2_0" arrivalPos="200.00" arrivalSpeed="11.18" duration="48.60" routeLength="414.30" waitingTime="6.10" waitingCount="3" stopTime="0.00" timeLoss="-4290.40" rerouteNo="0" devices="tripinfo_S_31" vType="car8@S_31" speedFactor="1.15" vaporized=""/>
    <tripinfo id="L_53" depart="13.00" departLane="2_2" departPos="7.10" departSpeed="0.00" departDelay="0.00" arrival="59.00" arrivalLane="-3_2" arrivalPos="200.00" arrivalSpeed="11.18" duration="46.00" routeLength="412.45" waitingTime="4.90" waitingCount="2" stopTime="0.00" timeLoss="-4243.68" rerouteNo="0" devices="tripinfo_L_53" vType="car7@L_53" speedFactor="1.10" vaporized=""/>
    <tripinfo id="L_47" depart="13.00" departLane="4_1" departPos="5.10" departSpeed="0.00" departDelay="2.00" arrival="60.30" arrivalLane="-1_2" arrivalPos="200.00" arrivalSpeed="11.18" duration="47.30" routeLength="414.45" waitingTime="4.90" waitingCount="4" stopTime="0.00" timeLoss="-4491.89" rerouteNo="0" devices="tripinfo_L_47" vType="car5@L_47" speedFactor="0.90" vaporized=""/>
    <tripinfo id="L_38" depart="9.30" departLane="3_1" departPos="9.10" departSpeed="0.00" departDelay="0.30" arrival="61.10" arrivalLane="-4_2" arrivalPos="200.00" arrivalSpeed="11.18" duration="51.80" routeLength="410.45" waitingTime="7.10" waitingCount="4" stopTime="0.00" timeLoss="-3994.54" rerouteNo="0" devices="tripinfo_L_38" vType="car9@L_38" speedFactor="1.10" vaporized=""/>
    <tripinfo id="L_57" depart="14.90" departLane="2_0" departPos="9.10" departSpeed="0.00" departDelay="0.90" arrival="61.50" arrivalLane="-3_2" arrivalPos="200.00" arrivalSpeed="11.18" duration="46.60" routeLength="410.45" waitingTime="4.30" waitingCount="4" stopTime="0.00" timeLoss="-4275.08" rerouteNo="0" devices="tripinfo_L_57" vType="car9@L_57" speedFactor="1.14" vaporized=""/>
    <tripinfo id="L_52" depart="13.80" departLane="1_1" departPos="6.10" departSpeed="0.00" departDelay="0.80" arrival="62.30" arrivalLane="-2_2" arrivalPos="200.00" arrivalSpeed="11.18" duration="48.50" routeLength="413.45" waitingTime="6.80" waitingCount="3" stopTime="0.00" timeLoss="-4740.58" rerouteNo="0" devices="tripinfo_L_52" vType="car6@L_52" speedFactor="1.02" vaporized=""/>
    <tripinfo id="S_63" depart="15.00" departLane="4_1" departPos="6.10" departSpeed="0.00" departDelay="0.00" arrival="63.30" arrivalLane="-2_1" arrivalPos="200.00" arrivalSpeed="11.18" duration="48.30" routeLength="416.30" waitingTime="7.80" waitingCount="1" stopTime="0.00" timeLoss="-4453.86" rerouteNo="0" devices="tripinfo_S_63" vType="car6@S_63" speedFactor="0.99" vaporized=""/>
    <tripinfo id="S_56" depart="14.00" departLane="1_0" departPos="9.10" departSpeed="0.00" departDelay="0.00" arrival="63.50" arrivalLane="-3_0" arrivalPos="200.00" arrivalSpeed="11.18" duration="49.50" routeLength="413.30" waitingTime="5.40" waitingCount="2" stopTime="0.00" timeLoss="-4592.99" rerouteNo="0" devices="tripinfo_S_56" vType="car9@S_56" speedFactor="0.90" vaporized=""/>
    <tripinfo id="S_67" depart="16.00" departLane="4_2" departPos="5.10" departSpeed="0.00" departDelay="0.00" arrival="63.50" arrivalLane="-2_2" arrivalPos="200.00" arrivalSpeed="11.18" duration="47.50" routeLength="417.30" waitingTime="5.30" waitingCount="2" stopTime="0.00" timeLoss="-4927.34" rerouteNo="0" devices="tripinfo_S_67" vType="car5@S_67" speedFactor="0.91" vaporized=""/>
    <tripinfo id="L_44" depart="11.40" departLane="1_1" departPos="5.10" departSpeed="0.00" departDelay="0.40" arrival="64.30" arrivalLane="-2_2" arrivalPos="200.00" arrivalSpeed="11.18" duration="52.90" routeLength="414.45" waitingTime="9.70" waitingCount="5" stopTime="0.00" timeLoss="-4279.77" rerouteNo="0" devices="tripinfo_L_44" vType="car5@L_44" speedFactor="1.04" vaporized=""/>
    <tripinfo id="R_46" depart="13.70" departLane="3_1" departPos="5.10" departSpeed="0.00" departDelay="2.70" arrival="64.30" arrivalLane="-2_1" arrivalPos="200.00" arrivalSpeed="11.18" duration="50.60" routeLength="405.22" waitingTime="9.50" waitingCount="4" stopTime="0.00" timeLoss="-4287.77" rerouteNo="0" devices="tripinfo_R_46" vType="car5@R_46" speedFactor="1.00" vaporized=""/>
    <tripinfo id="L_50" depart="12.00" departLane="3_0" departPos="5.10" departSpeed="0.00" departDelay="0.00" arrival="64.50" arrivalLane="-4_2" arrivalPos="200.00" arrivalSpeed="11.18" duration="52.50" routeLength="414.45" waitingTime="6.20" waitingCount="6" stopTime="0.00" timeLoss="-4527.10" rerouteNo="0" devices="tripinfo_L_50" vType="car5@L_50" speedFactor="0.85" vaporized=""/>
    <tripinfo id="S_65" depart="17.60" departLane="2_0" departPos="8.10" departSpeed="0.00" departDelay="1.60" arrival="64.70" arrivalLane="-4_0" arrivalPos="200.00" arrivalSpeed="11.18" duration="47.10" routeLength="414.30" waitingTime="6.80" waitingCount="2" stopTime="0.00" timeLoss="-4505.65" rerouteNo="0" devices="tripinfo_S_65" vType="car8@S_65" speedFactor="0.88" vaporized=""/>
    <tripinfo id="R_51" depart="16.30" departLane="4_0" departPos="8.10" departSpeed="0.00" departDelay="4.30" arrival="64.90" arrivalLane="-3_1" arrivalPos="200.00" arrivalSpeed="11.18" duration="48.60" routeLength="402.22" waitingTime="8.20" waitingCount="3" stopTime="0.00" timeLoss="-4846.09" rerouteNo="0" devices="tripinfo_R_51" vType="car8@R_51" speedFactor="1.17" vaporized=""/>
    <tripinfo id="L_26" depart="10.70" departLane="3_2" departPos="8.10" departSpeed="0.00" departDelay="4.70" arrival="65.30" arrivalLane="-4_2" arrivalPos="200.00" arrivalSpeed="11.18" duration="54.60" routeLength="411.45" waitingTime="7.80" waitingCount="9" stopTime="0.00" timeLoss="15.12" rerouteNo="0" devices="tripinfo_L_26" vType="car8@L_26" speedFactor="0.92" vaporized=""/>
    <tripinfo id="R_68" depart="17.20" departLane="1_0" departPos="9.10" departSpeed="0.00" departDelay="0.20" arrival="65.80" arrivalLane="-4_0" arrivalPos="200.00" arrivalSpeed="11.18" duration="48.60" routeLength="396.06" waitingTime="6.90" waitingCount="2" stopTime="0.00" timeLoss="-4279.65" rerouteNo="0" devices="tripinfo_R_68" vType="car9@R_68" speedFactor="1.04" vaporized=""/>
    <tripinfo id="R_79" depart="22.30" departLane="4_0" departPos="9.10" departSpeed="0.00" departDelay="3.30" arrival="66.00" arrivalLane="-3_1" arrivalPos="200.00" arrivalSpeed="11.18" duration="43.70" routeLength="401.22" waitingTime="2.70" waitingCount="4" stopTime="0.00" timeLoss="5.12" rerouteNo="0" devices="tripinfo_R_79" vType="car9@R_79" speedFactor="1.09" vaporized=""/>
    <tripinfo id="S_74" depart="18.00" departLane="3_0" departPos="8.10" departSpeed="0.00" departDelay="0.00" arrival="66.10" arrivalLane="-1_1" arrivalPos="200.00" arrivalSpeed="11.18" duration="48.10" routeLength="414.30" waitingTime="7.40" waitingCount="3" stopTime="0.00" timeLoss="11.01" rerouteNo="0" devices="tripinfo_S_74" vType="car8@S_74" speedFactor="0.96" vaporized=""/>
    <tripinfo id="L_60" depart="17.10" departLane="1_0" departPos="9.10" departSpeed="0.00" departDelay="2.10" arrival="67.00" arrivalLane="-2_2" arrivalPos="200.00" arrivalSpeed="11.18" duration="49.90" routeLength="410.45" waitingTime="6.50" waitingCount="5" stopTime="0.00" timeLoss="-4384.91" rerouteNo="0" devices="tripinfo_L_60" vType="car9@L_60" speedFactor="1.08" vaporized=""/>
    <tripinfo id="R_59" depart="19.70" departLane="4_0" departPos="5.10" departSpeed="0.00" departDelay="5.70" arrival="67.20" arrivalLane="-3_1" arrivalPos="200.00" arrivalSpeed="11.18" duration="47.50" routeLength="405.22" waitingTime="2.40" waitingCount="9" stopTime="0.00" timeLoss="8.36" rerouteNo="0" devices="tripinfo_R_59" vType="car5@R_59" speedFactor="0.97" vaporized=""/>
    <tripinfo id="R_73" depart="19.40" departLane="2_0" departPos="5.10" departSpeed="0.00" departDelay="1.40" arrival="67.30" arrivalLane="-1_1" arrivalPos="200.00" arrivalSpeed="11.18" duration="47.90" routeLength="405.22" waitingTime="8.40" waitingCount="2" stopTime="0.00" timeLoss="-4180.28" rerouteNo="0" devices="tripinfo_R_73" vType="car5@R_73" speedFactor="1.06" vaporized=""/>
    <tripinfo id="L_71" depart="18.10" departLane="4_2" departPos="8.10" departSpeed="0.00" departDelay="1.10" arrival="67.60" arrivalLane="-1_2" arrivalPos="200.00" arrivalSpeed="11.18" duration="49.50" routeLength="411.45" waitingTime="6.70" waitingCount="4" stopTime="0.00" timeLoss="-4657.98" rerouteNo="0" devices="tripinfo_L_71" vType="car8@L_71" speedFactor="0.97" vaporized=""/>
    <tripinfo id="R_76" depart="20.30" departLane="1_0" departPos="9.10" departSpeed="0.00" departDelay="1.30" arrival="67.70" arrivalLane="-4_1" arrivalPos="200.00" arrivalSpeed="11.18" duration="47.40" routeLength="401.22" waitingTime="8.10" waitingCount="2" stopTime="0.00" timeLoss="-4246.53" rerouteNo="0" devices="tripinfo_R_76" vType="car9@R_76" speedFactor="1.03" vaporized=""/>
    <tripinfo id="R_87" depart="24.50" departLane="4_0" departPos="6.10" departSpeed="0.00" departDelay="3.50" arrival="68.00" arrivalLane="-3_1" arrivalPos="200.00" arrivalSpeed="11.18" duration="43.50" routeLength="404.22" waitingTime="2.10" waitingCount="3" stopTime="0.00" timeLoss="4.64" rerouteNo="0" devices="tripinfo_R_87" vType="car6@R_87" speedFactor="1.04" vaporized=""/>
    <tripinfo id="R_91" depart="26.50" departLane="4_2" departPos="6.10" departSpeed="0.00" departDelay="4.50" arrival="69.00" arrivalLane="-3_0" arrivalPos="200.00" arrivalSpeed="11.18" duration="42.50" routeLength="399.06" waitingTime="3.20" waitingCount="1" stopTime="0.00" timeLoss="1.49" rerouteNo="0" devices="tripinfo_R_91" vType="car6@R_91" speedFactor="0.89" vaporized=""/>
    <tripinfo id="S_77" depart="19.00" departLane="2_2" departPos="9.10" departSpeed="0.00" departDelay="0.00" arrival="69.30" arrivalLane="-4_2" arrivalPos="200.00" arrivalSpeed="11.18" duration="50.30" routeLength="413.30" waitingTime="7.10" waitingCount="3" stopTime="0.00" timeLoss="-4240.95" rerouteNo="0" devices="tripinfo_S_77" vType="car9@S_77" speedFactor="0.98" vaporized=""/>
    <tripinfo id="S_58" depart="18.80" departLane="3_2" departPos="8.10" departSpeed="0.00" departDelay="4.80" arrival="69.70" arrivalLane="-1_0" arrivalPos="200.00" arrivalSpeed="11.18" duration="50.90" routeLength="414.30" waitingTime="8.90" waitingCount="2" stopTime="0.00" timeLoss="-4901.95" rerouteNo="0" devices="tripinfo_S_58" vType="car8@S_58" speedFactor="1.02" vaporized=""/>
    <tripinfo id="R_62" depart="22.70" departLane="3_2" departPos="8.10" departSpeed="0.00" departDelay="7.70" arrival="69.80" arrivalLane="-2_1" arrivalPos="200.00" arrivalSpeed="11.18" duration="47.10" routeLength="402.22" waitingTime="6.60" waitingCount="2" stopTime="0.00" timeLoss="-4980.41" rerouteNo="0" devices="tripinfo_R_62" vType="car8@R_62" speedFactor="1.02" vaporized=""/>
    <tripinfo id="R_85" depart="21.50" departLane="2_2" departPos="5.10" departSpeed="0.00" departDelay="0.50" arrival="70.80" arrivalLane="-1_0" arrivalPos="200.00" arrivalSpeed="11.18" duration="49.30" routeLength="400.06" waitingTime="6.90" waitingCount="4" stopTime="0.00" timeLoss="-4730.00" rerouteNo="0" devices="tripinfo_R_85" vType="car5@R_85" speedFactor="0.98" vaporized=""/>
    <tripinfo id="R_70" depart="25.00" departLane="3_2" departPos="9.10" departSpeed="0.00" departDelay="8.00" arrival="71.10" arrivalLane="-2_0" arrivalPos="200.00" arrivalSpeed="11.18" duration="46.10" routeLength="396.06" waitingTime="6.00" waitingCount="3" stopTime="0.00" timeLoss="-4756.09" rerouteNo="0" devices="tripinfo_R_70" vType="car9@R_70" speedFactor="1.02" vaporized=""/>
    <tripinfo id="L_55" depart="17.30" departLane="4_0" departPos="8.10" departSpeed="0.00" departDelay="4.30" arrival="71.30" arrivalLane="-1_2" arrivalPos="200.00" arrivalSpeed="11.18" duration="54.00" routeLength="411.45" waitingTime="7.60" waitingCount="9" stopTime="0.00" timeLoss="-4405.70" rerouteNo="0" devices="tripinfo_L_55" vType="car8@L_55" speedFactor="1.00" vaporized=""/>
    <tripinfo id="L_48" depart="17.80" departLane="1_2" departPos="7.10" departSpeed="0.00" departDelay="5.80" arrival="73.60" arrivalLane="-2_2" arrivalPos="200.00" arrivalSpeed="11.18" duration="55.80" routeLength="412.45" waitingTime="10.20" waitingCount="8" stopTime="0.00" timeLoss="-4301.13" rerouteNo="0" devices="tripinfo_L_48" vType="car7@L_48" speedFactor="0.88" vaporized=""/>
    <tripinfo id="L_75" depart="20.10" departLane="4_2" departPos="6.10" departSpeed="0.00" departDelay="2.10" arrival="73.80" arrivalLane="-1_2" arrivalPos="200.00" arrivalSpeed="11.18" duration="53.70" routeLength="413.45" waitingTime="6.90" waitingCount="9" stopTime="0.00" timeLoss="-4505.30" rerouteNo="0" devices="tripinfo_L_75" vType="car6@L_75" speedFactor="0.98" vaporized=""/>