<?xml version="1.0" encoding="UTF-8"?>

<!-- generated on 12/17/20 03:17:04 by Eclipse SUMO GUI Version 1.8.0
<configuration xmlns:xsi="http://www.w3.org/2001/XMLSchema-instance" xsi:noNamespaceSchemaLocation="http://sumo.dlr.de/xsd/sumoConfiguration.xsd">

    <input>
        <net-file value="data/two_inter.net.xml"/>
        <route-files value="data/icacc+.rou.xml"/>
    </input>

    <output>
        <tripinfo-output value="tripinfo.xml"/>
    </output>

    <time>
        <begin value="0"/>
        <step-length value="0.1"/>
    </time>

    <processing>
        <threads value="8"/>
        <collision.mingap-factor value="0"/>
        <time-to-teleport value="-1"/>
        <default.speeddev value="1"/>
    </processing>

    <report>
        <verbose value="true"/>
        <log value="error_log.txt"/>
        <no-step-log value="true"/>
    </report>

    <traci_server>
        <remote-port value="5244"/>
    </traci_server>

    <gui_only>
        <start value="true"/>
        <tracker-interval value="0.1"/>
    </gui_only>

</configuration>
-->

<tripinfos xmlns:xsi="http://www.w3.org/2001/XMLSchema-instance" xsi:noNamespaceSchemaLocation="http://sumo.dlr.de/xsd/tripinfo_file.xsd">
    <tripinfo id="LX_2" depart="0.00" departLane="001_001_4_2" departPos="8.10" departSpeed="11.18" departDelay="0.00" arrival="37.20" arrivalLane="000_001_3_2" arrivalPos="200.00" arrivalSpeed="11.18" duration="37.20" routeLength="415.11" waitingTime="0.00" waitingCount="0" stopTime="0.00" timeLoss="-2.36" rerouteNo="1" devices="tripinfo_LX_2" vType="car8@LX_2" speedFactor="1.10" vaporized=""/>
    <tripinfo id="LX_4" depart="0.00" departLane="002_001_3_2" departPos="5.10" departSpeed="11.18" departDelay="0.00" arrival="37.50" arrivalLane="002_000_2_2" arrivalPos="200.00" arrivalSpeed="11.18" duration="37.50" routeLength="418.12" waitingTime="0.00" waitingCount="0" stopTime="0.00" timeLoss="-2.36" rerouteNo="1" devices="tripinfo_LX_4" vType="car5@LX_4" speedFactor="1.30" vaporized=""/>
    <tripinfo id="SX_5" depart="0.00" departLane="002_001_4_1" departPos="8.10" departSpeed="11.18" departDelay="0.00" arrival="38.40" arrivalLane="002_002_4_0" arrivalPos="200.00" arrivalSpeed="11.18" duration="38.40" routeLength="419.10" waitingTime="0.00" waitingCount="0" stopTime="0.00" timeLoss="-0.03" rerouteNo="1" devices="tripinfo_SX_5" vType="car8@SX_5" speedFactor="1.46" vaporized=""/>
    <tripinfo id="LX_3" depart="0.00" departLane="002_001_2_2" departPos="6.10" departSpeed="11.18" departDelay="0.00" arrival="38.70" arrivalLane="003_001_1_2" arrivalPos="200.00" arrivalSpeed="11.18" duration="38.70" routeLength="417.11" waitingTime="0.00" waitingCount="0" stopTime="0.00" timeLoss="-2.42" rerouteNo="1" devices="tripinfo_LX_3" vType="car6@LX_3" speedFactor="1.83" vaporized=""/>
    <tripinfo id="RX_19" depart="3.00" departLane="001_001_2_0" departPos="5.10" departSpeed="11.18" departDelay="0.00" arrival="39.20" arrivalLane="000_001_3_0" arrivalPos="200.00" arrivalSpeed="11.18" duration="36.20" routeLength="403.93" waitingTime="0.00" waitingCount="0" stopTime="0.00" timeLoss="-2.61" rerouteNo="1" devices="tripinfo_RX_19" vType="car5@RX_19" speedFactor="1.05" vaporized=""/>
    <tripinfo id="SX_7" depart="1.00" departLane="001_001_2_1" departPos="7.10" departSpeed="11.18" departDelay="0.00" arrival="39.50" arrivalLane="001_000_2_1" arrivalPos="200.00" arrivalSpeed="11.18" duration="38.50" routeLength="420.10" waitingTime="0.00" waitingCount="0" stopTime="0.00" timeLoss="-0.03" rerouteNo="1" devices="tripinfo_SX_7" vType="car7@SX_7" speedFactor="1.91" vaporized=""/>
    <tripinfo id="RX_10" depart="1.00" departLane="002_001_3_0" departPos="5.10" departSpeed="11.18" departDelay="0.00" arrival="40.10" arrivalLane="002_002_4_0" arrivalPos="200.00" arrivalSpeed="11.18" duration="39.10" routeLength="403.93" waitingTime="2.00" waitingCount="1" stopTime="0.00" timeLoss="-4061.26" rerouteNo="1" devices="tripinfo_RX_10" vType="car5@RX_10" speedFactor="1.10" vaporized=""/>
    <tripinfo id="LX_18" depart="3.00" departLane="001_001_1_2" departPos="8.10" departSpeed="11.18" departDelay="0.00" arrival="40.70" arrivalLane="001_002_4_2" arrivalPos="200.00" arrivalSpeed="11.18" duration="37.70" routeLength="415.12" waitingTime="0.00" waitingCount="0" stopTime="0.00" timeLoss="-2.36" rerouteNo="1" devices="tripinfo_LX_18" vType="car8@LX_18" speedFactor="1.26" vaporized=""/>
    <tripinfo id="SX_11" depart="1.00" departLane="002_001_4_1" departPos="9.10" departSpeed="11.18" departDelay="0.00" arrival="40.80" arrivalLane="002_002_4_1" arrivalPos="200.00" arrivalSpeed="11.18" duration="39.80" routeLength="418.10" waitingTime="0.00" waitingCount="0" stopTime="0.00" timeLoss="-0.43" rerouteNo="1" devices="tripinfo_SX_11" vType="car9@SX_11" speedFactor="1.83" vaporized=""/>
    <tripinfo id="RX_16" depart="2.50" departLane="002_001_3_0" departPos="9.10" departSpeed="11.18" departDelay="0.50" arrival="40.80" arrivalLane="002_002_4_0" arrivalPos="200.00" arrivalSpeed="11.18" duration="38.30" routeLength="399.93" waitingTime="1.70" waitingCount="1" stopTime="0.00" timeLoss="-0.23" rerouteNo="1" devices="tripinfo_RX_16" vType="car9@RX_16" speedFactor="1.00" vaporized=""/>
    <tripinfo id="LX_20" depart="3.00" departLane="001_001_4_2" departPos="9.10" departSpeed="11.18" departDelay="0.00" arrival="41.30" arrivalLane="000_001_3_2" arrivalPos="200.00" arrivalSpeed="11.18" duration="38.30" routeLength="414.11" waitingTime="0.00" waitingCount="0" stopTime="0.00" timeLoss="-2.39" rerouteNo="1" devices="tripinfo_LX_20" vType="car9@LX_20" speedFactor="1.47" vaporized=""/>
    <tripinfo id="SX_23" depart="3.00" departLane="002_001_4_1" departPos="7.10" departSpeed="11.18" departDelay="0.00" arrival="41.80" arrivalLane="002_002_4_1" arrivalPos="200.00" arrivalSpeed="11.18" duration="38.80" routeLength="420.10" waitingTime="0.00" waitingCount="0" stopTime="0.00" timeLoss="0.17" rerouteNo="1" devices="tripinfo_SX_23" vType="car7@SX_23" speedFactor="1.30" vaporized=""/>
    <tripinfo id="RX_22" depart="3.80" departLane="002_001_3_0" departPos="7.10" departSpeed="11.18" departDelay="0.80" arrival="42.00" arrivalLane="002_002_4_0" arrivalPos="200.00" arrivalSpeed="11.18" duration="38.20" routeLength="401.93" waitingTime="1.00" waitingCount="1" stopTime="0.00" timeLoss="-0.56" rerouteNo="1" devices="tripinfo_RX_22" vType="car7@RX_22" speedFactor="1.00" vaporized=""/>
    <tripinfo id="RX_24" depart="4.00" departLane="001_001_1_0" departPos="9.10" departSpeed="11.18" departDelay="0.00" arrival="42.00" arrivalLane="001_000_2_0" arrivalPos="200.00" arrivalSpeed="11.18" duration="38.00" routeLength="399.93" waitingTime="0.00" waitingCount="0" stopTime="0.00" timeLoss="-0.52" rerouteNo="1" devices="tripinfo_RX_24" vType="car9@RX_24" speedFactor="1.00" vaporized=""/>
    <tripinfo id="LX_33" depart="5.00" departLane="002_001_2_2" departPos="7.10" departSpeed="11.18" departDelay="0.00" arrival="42.60" arrivalLane="003_001_1_2" arrivalPos="200.00" arrivalSpeed="11.18" duration="37.60" routeLength="416.11" waitingTime="0.00" waitingCount="0" stopTime="0.00" timeLoss="-2.36" rerouteNo="1" devices="tripinfo_LX_33" vType="car7@LX_33" speedFactor="1.00" vaporized=""/>
    <tripinfo id="SX_21" depart="3.00" departLane="002_001_2_1" departPos="5.10" departSpeed="11.18" departDelay="0.00" arrival="42.70" arrivalLane="002_000_2_1" arrivalPos="200.00" arrivalSpeed="11.18" duration="39.70" routeLength="422.10" waitingTime="0.00" waitingCount="0" stopTime="0.00" timeLoss="-0.26" rerouteNo="1" devices="tripinfo_SX_21" vType="car5@SX_21" speedFactor="1.20" vaporized=""/>
    <tripinfo id="RX_28" depart="5.20" departLane="002_001_3_0" departPos="8.10" departSpeed="11.18" departDelay="1.20" arrival="43.00" arrivalLane="002_002_4_0" arrivalPos="200.00" arrivalSpeed="11.18" duration="37.80" routeLength="400.93" waitingTime="0.40" waitingCount="1" stopTime="0.00" timeLoss="-0.45" rerouteNo="1" devices="tripinfo_RX_28" vType="car8@RX_28" speedFactor="1.88" vaporized=""/>
    <tripinfo id="RX_42" depart="7.00" departLane="001_001_1_0" departPos="5.10" departSpeed="11.18" departDelay="0.00" arrival="43.20" arrivalLane="001_000_2_0" arrivalPos="200.00" arrivalSpeed="11.18" duration="36.20" routeLength="403.93" waitingTime="0.00" waitingCount="0" stopTime="0.00" timeLoss="-2.41" rerouteNo="1" devices="tripinfo_RX_42" vType="car5@RX_42" speedFactor="1.23" vaporized=""/>
    <tripinfo id="LX_30" depart="5.00" departLane="001_001_1_2" departPos="5.10" departSpeed="11.18" departDelay="0.00" arrival="44.10" arrivalLane="001_002_4_2" arrivalPos="200.00" arrivalSpeed="11.18" duration="39.10" routeLength="418.12" waitingTime="0.70" waitingCount="1" stopTime="0.00" timeLoss="-4061.07" rerouteNo="1" devices="tripinfo_LX_30" vType="car5@LX_30" speedFactor="1.17" vaporized=""/>
    <tripinfo id="SX_31" depart="5.00" departLane="001_001_2_1" departPos="8.10" departSpeed="11.18" departDelay="0.00" arrival="44.90" arrivalLane="001_000_2_0" arrivalPos="200.00" arrivalSpeed="11.18" duration="39.90" routeLength="419.10" waitingTime="0.00" waitingCount="0" stopTime="0.00" timeLoss="-0.12" rerouteNo="1" devices="tripinfo_SX_31" vType="car8@SX_31" speedFactor="1.96" vaporized=""/>
    <tripinfo id="LX_34" depart="5.00" departLane="002_001_3_2" departPos="9.10" departSpeed="11.18" departDelay="0.00" arrival="45.10" arrivalLane="002_000_2_2" arrivalPos="200.00" arrivalSpeed="11.18" duration="40.10" routeLength="414.12" waitingTime="0.00" waitingCount="0" stopTime="0.00" timeLoss="-3.11" rerouteNo="1" devices="tripinfo_LX_34" vType="car9@LX_34" speedFactor="1.24" vaporized=""/>
    <tripinfo id="RX_55" depart="9.00" departLane="001_001_2_0" departPos="6.10" departSpeed="11.18" departDelay="0.00" arrival="45.10" arrivalLane="000_001_3_0" arrivalPos="200.00" arrivalSpeed="11.18" duration="36.10" routeLength="402.93" waitingTime="0.00" waitingCount="0" stopTime="0.00" timeLoss="-2.36" rerouteNo="1" devices="tripinfo_RX_55" vType="car6@RX_55" speedFactor="1.30" vaporized=""/>
    <tripinfo id="LX_38" depart="6.00" departLane="001_001_4_2" departPos="7.10" departSpeed="11.18" departDelay="0.00" arrival="45.30" arrivalLane="000_001_3_2" arrivalPos="200.00" arrivalSpeed="11.18" duration="39.30" routeLength="416.11" waitingTime="0.00" waitingCount="0" stopTime="0.00" timeLoss="-2.44" rerouteNo="1" devices="tripinfo_LX_38" vType="car7@LX_38" speedFactor="1.10" vaporized=""/>
    <tripinfo id="LX_40" depart="6.40" departLane="002_001_3_2" departPos="8.10" departSpeed="11.18" departDelay="0.40" arrival="46.30" arrivalLane="002_000_2_2" arrivalPos="200.00" arrivalSpeed="11.18" duration="39.90" routeLength="415.12" waitingTime="0.00" waitingCount="0" stopTime="0.00" timeLoss="0.13" rerouteNo="1" devices="tripinfo_LX_40" vType="car8@LX_40" speedFactor="1.40" vaporized=""/>
    <tripinfo id="RX_48" depart="8.50" departLane="001_001_1_0" departPos="9.10" departSpeed="11.18" departDelay="0.50" arrival="46.30" arrivalLane="001_000_2_0" arrivalPos="200.00" arrivalSpeed="11.18" duration="37.80" routeLength="399.93" waitingTime="1.00" waitingCount="1" stopTime="0.00" timeLoss="-4528.83" rerouteNo="1" devices="tripinfo_RX_48" vType="car9@RX_48" speedFactor="1.32" vaporized=""/>
    <tripinfo id="RX_52" depart="8.20" departLane="002_001_3_0" departPos="6.10" departSpeed="11.18" departDelay="0.20" arrival="46.40" arrivalLane="002_002_4_0" arrivalPos="200.00" arrivalSpeed="11.18" duration="38.20" routeLength="402.93" waitingTime="0.60" waitingCount="1" stopTime="0.00" timeLoss="-0.21" rerouteNo="1" devices="tripinfo_RX_52" vType="car6@RX_52" speedFactor="1.34" vaporized=""/>
    <tripinfo id="SX_39" depart="6.00" departLane="002_001_2_1" departPos="9.10" departSpeed="11.18" departDelay="0.00" arrival="46.60" arrivalLane="002_000_2_1" arrivalPos="200.00" arrivalSpeed="11.18" duration="40.60" routeLength="418.10" waitingTime="0.00" waitingCount="0" stopTime="0.00" timeLoss="-0.19" rerouteNo="1" devices="tripinfo_SX_39" vType="car9@SX_39" speedFactor="1.00" vaporized=""/>
    <tripinfo id="RX_71" depart="11.00" departLane="002_001_4_0" departPos="5.10" departSpeed="11.18" departDelay="0.00" arrival="47.20" arrivalLane="003_001_1_0" arrivalPos="200.00" arrivalSpeed="11.18" duration="36.20" routeLength="403.93" waitingTime="0.00" waitingCount="0" stopTime="0.00" timeLoss="-2.17" rerouteNo="1" devices="tripinfo_RX_71" vType="car5@RX_71" speedFactor="1.73" vaporized=""/>
    <tripinfo id="RX_60" depart="10.00" departLane="001_001_1_0" departPos="7.10" departSpeed="11.18" departDelay="0.00" arrival="47.40" arrivalLane="001_000_2_0" arrivalPos="200.00" arrivalSpeed="11.18" duration="37.40" routeLength="401.93" waitingTime="0.40" waitingCount="1" stopTime="0.00" timeLoss="-1.07" rerouteNo="1" devices="tripinfo_RX_60" vType="car7@RX_60" speedFactor="1.22" vaporized=""/>
    <tripinfo id="LX_36" depart="6.40" departLane="001_001_1_2" departPos="8.10" departSpeed="11.18" departDelay="0.40" arrival="47.80" arrivalLane="001_002_4_2" arrivalPos="200.00" arrivalSpeed="11.18" duration="41.40" routeLength="415.12" waitingTime="2.20" waitingCount="2" stopTime="0.00" timeLoss="-4738.06" rerouteNo="1" devices="tripinfo_LX_36" vType="car8@LX_36" speedFactor="1.82" vaporized=""/>
    <tripinfo id="SX_47" depart="7.30" departLane="002_001_4_1" departPos="7.10" departSpeed="11.18" departDelay="0.30" arrival="47.90" arrivalLane="002_002_4_0" arrivalPos="200.00" arrivalSpeed="11.18" duration="40.60" routeLength="420.10" waitingTime="0.00" waitingCount="0" stopTime="0.00" timeLoss="-0.31" rerouteNo="1" devices="tripinfo_SX_47" vType="car7@SX_47" speedFactor="1.00" vaporized=""/>
    <tripinfo id="SX_41" depart="6.00" departLane="002_001_4_1" departPos="6.10" departSpeed="11.18" departDelay="0.00" arrival="48.00" arrivalLane="002_002_4_1" arrivalPos="200.00" arrivalSpeed="11.18" duration="42.00" routeLength="421.10" waitingTime="0.00" waitingCount="0" stopTime="0.00" timeLoss="-0.56" rerouteNo="1" devices="tripinfo_SX_41" vType="car6@SX_41" speedFactor="1.22" vaporized=""/>
    <tripinfo id="RX_67" depart="12.00" departLane="001_001_2_0" departPos="5.10" departSpeed="11.18" departDelay="1.00" arrival="48.20" arrivalLane="000_001_3_0" arrivalPos="200.00" arrivalSpeed="11.18" duration="36.20" routeLength="403.93" waitingTime="0.00" waitingCount="0" stopTime="0.00" timeLoss="-2.20" rerouteNo="1" devices="tripinfo_RX_67" vType="car5@RX_67" speedFactor="1.65" vaporized=""/>
    <tripinfo id="SX_56" depart="9.00" departLane="001_001_4_1" departPos="8.10" departSpeed="11.18" departDelay="0.00" arrival="48.30" arrivalLane="001_002_4_1" arrivalPos="200.00" arrivalSpeed="11.18" duration="39.30" routeLength="419.10" waitingTime="0.00" waitingCount="0" stopTime="0.00" timeLoss="-0.11" rerouteNo="1" devices="tripinfo_SX_56" vType="car8@SX_56" speedFactor="1.00" vaporized=""/>
    <tripinfo id="LX_45" depart="7.00" departLane="002_001_2_2" departPos="9.10" departSpeed="11.18" departDelay="0.00" arrival="49.00" arrivalLane="003_001_1_2" arrivalPos="200.00" arrivalSpeed="11.18" duration="42.00" routeLength="414.11" waitingTime="3.90" waitingCount="1" stopTime="0.00" timeLoss="-4528.85" rerouteNo="1" devices="tripinfo_LX_45" vType="car9@LX_45" speedFactor="1.56" vaporized=""/>
    <tripinfo id="SX_61" depart="10.00" departLane="001_001_2_1" departPos="5.10" departSpeed="11.18" departDelay="0.00" arrival="49.00" arrivalLane="001_000_2_0" arrivalPos="200.00" arrivalSpeed="11.18" duration="39.00" routeLength="422.10" waitingTime="0.00" waitingCount="0" stopTime="0.00" timeLoss="0.25" rerouteNo="1" devices="tripinfo_SX_61" vType="car5@SX_61" speedFactor="1.17" vaporized=""/>
    <tripinfo id="RX_58" depart="9.30" departLane="002_001_3_0" departPos="5.10" departSpeed="11.18" departDelay="0.30" arrival="49.10" arrivalLane="002_002_4_0" arrivalPos="200.00" arrivalSpeed="11.18" duration="39.80" routeLength="403.93" waitingTime="1.20" waitingCount="2" stopTime="0.00" timeLoss="-4920.57" rerouteNo="1" devices="tripinfo_RX_58" vType="car5@RX_58" speedFactor="1.43" vaporized=""/>
    <tripinfo id="SX_49" depart="8.00" departLane="001_001_2_1" departPos="5.10" departSpeed="11.18" departDelay="0.00" arrival="49.40" arrivalLane="001_000_2_1" arrivalPos="200.00" arrivalSpeed="11.18" duration="41.40" routeLength="422.10" waitingTime="0.00" waitingCount="0" stopTime="0.00" timeLoss="-0.40" rerouteNo="1" devices="tripinfo_SX_49" vType="car5@SX_49" speedFactor="1.20" vaporized=""/>
    <tripinfo id="RX_64" depart="10.80" departLane="002_001_3_0" departPos="9.10" departSpeed="11.18" departDelay="0.80" arrival="49.90" arrivalLane="002_002_4_0" arrivalPos="200.00" arrivalSpeed="11.18" duration="39.10" routeLength="399.93" waitingTime="1.10" waitingCount="1" stopTime="0.00" timeLoss="0.99" rerouteNo="1" devices="tripinfo_RX_64" vType="car9@RX_64" speedFactor="1.57" vaporized=""/>
    <tripinfo id="RX_85" depart="14.00" departLane="001_001_2_0" departPos="9.10" departSpeed="11.18" departDelay="0.00" arrival="49.90" arrivalLane="000_001_3_0" arrivalPos="200.00" arrivalSpeed="11.18" duration="35.90" routeLength="399.93" waitingTime="0.00" waitingCount="0" stopTime="0.00" timeLoss="-2.37" rerouteNo="1" devices="tripinfo_RX_85" vType="car9@RX_85" speedFactor="1.31" vaporized=""/>
    <tripinfo id="RX_89" depart="14.00" departLane="002_001_4_0" departPos="8.10" departSpeed="11.18" departDelay="0.00" arrival="49.90" arrivalLane="003_001_1_0" arrivalPos="200.00" arrivalSpeed="11.18" duration="35.90" routeLength="400.93" waitingTime="0.00" waitingCount="0" stopTime="0.00" timeLoss="-2.57" rerouteNo="1" devices="tripinfo_RX_89" vType="car8@RX_89" speedFactor="1.08" vaporized=""/>
    <tripinfo id="RX_78" depart="13.00" departLane="001_001_1_0" departPos="6.10" departSpeed="11.18" departDelay="0.00" arrival="50.00" arrivalLane="001_000_2_0" arrivalPos="200.00" arrivalSpeed="11.18" duration="37.00" routeLength="402.93" waitingTime="0.00" waitingCount="0" stopTime="0.00" timeLoss="-2.61" rerouteNo="1" devices="tripinfo_RX_78" vType="car6@RX_78" speedFactor="1.09" vaporized=""/>
    <tripinfo id="LX_51" depart="8.50" departLane="002_001_2_2" departPos="9.10" departSpeed="11.18" departDelay="0.50" arrival="50.10" arrivalLane="003_001_1_2" arrivalPos="200.00" arrivalSpeed="11.18" duration="41.60" routeLength="414.11" waitingTime="3.60" waitingCount="1" stopTime="0.00" timeLoss="2.03" rerouteNo="1" devices="tripinfo_LX_51" vType="car9@LX_51" speedFactor="1.87" vaporized=""/>
    <tripinfo id="RX_84" depart="14.20" departLane="001_001_1_0" departPos="6.10" departSpeed="11.18" departDelay="0.20" arrival="50.90" arrivalLane="001_000_2_0" arrivalPos="200.00" arrivalSpeed="11.18" duration="36.70" routeLength="402.93" waitingTime="0.00" waitingCount="0" stopTime="0.00" timeLoss="-2.70" rerouteNo="1" devices="tripinfo_RX_84" vType="car6@RX_84" speedFactor="1.00" vaporized=""/>
    <tripinfo id="LX_54" depart="9.00" departLane="001_001_1_2" departPos="7.10" departSpeed="11.18" departDelay="0.00" arrival="51.10" arrivalLane="001_002_4_2" arrivalPos="200.00" arrivalSpeed="11.18" duration="42.10" routeLength="416.12" waitingTime="3.10" waitingCount="2" stopTime="0.00" timeLoss="-4951.80" rerouteNo="1" devices="tripinfo_LX_54" vType="car7@LX_54" speedFactor="1.17" vaporized=""/>
    <tripinfo id="RX_76" depart="12.00" departLane="002_001_3_0" departPos="5.10" departSpeed="11.18" departDelay="0.00" arrival="51.10" arrivalLane="002_002_4_0" arrivalPos="200.00" arrivalSpeed="11.18" duration="39.10" routeLength="403.93" waitingTime="0.90" waitingCount="1" stopTime="0.00" timeLoss="0.21" rerouteNo="1" devices="tripinfo_RX_76" vType="car5@RX_76" speedFactor="1.17" vaporized=""/>
    <tripinfo id="SX_53" depart="8.00" departLane="002_001_4_1" departPos="5.10" departSpeed="11.18" departDelay="0.00" arrival="51.50" arrivalLane="002_002_4_2" arrivalPos="200.00" arrivalSpeed="11.18" duration="43.50" routeLength="422.10" waitingTime="4.80" waitingCount="1" stopTime="0.00" timeLoss="-4058.72" rerouteNo="1" devices="tripinfo_SX_53" vType="car5@SX_53" speedFactor="1.00" vaporized=""/>
    <tripinfo id="LX_62" depart="10.00" departLane="001_001_4_2" departPos="6.10" departSpeed="11.18" departDelay="0.00" arrival="51.60" arrivalLane="000_001_3_2" arrivalPos="200.00" arrivalSpeed="11.18" duration="41.60" routeLength="417.11" waitingTime="3.30" waitingCount="1" stopTime="0.00" timeLoss="-4182.45" rerouteNo="1" devices="tripinfo_LX_62" vType="car6@LX_62" speedFactor="1.92" vaporized=""/>
    <tripinfo id="SX_69" depart="11.00" departLane="002_001_2_1" departPos="5.10" departSpeed="11.18" departDelay="0.00" arrival="51.60" arrivalLane="002_000_2_2" arrivalPos="200.00" arrivalSpeed="11.18" duration="40.60" routeLength="422.10" waitingTime="1.50" waitingCount="1" stopTime="0.00" timeLoss="2.71" rerouteNo="1" devices="tripinfo_SX_69" vType="car5@SX_69" speedFactor="1.43" vaporized=""/>
    <tripinfo id="RX_101" depart="16.00" departLane="002_001_4_0" departPos="9.10" departSpeed="11.18" departDelay="0.00" arrival="51.80" arrivalLane="003_001_1_0" arrivalPos="200.00" arrivalSpeed="11.18" duration="35.80" routeLength="399.93" waitingTime="0.00" waitingCount="0" stopTime="0.00" timeLoss="-2.30" rerouteNo="1" devices="tripinfo_RX_101" vType="car9@RX_101" speedFactor="1.40" vaporized=""/>
    <tripinfo id="RX_82" depart="13.10" departLane="002_001_3_0" departPos="5.10" departSpeed="11.18" departDelay="0.10" arrival="51.90" arrivalLane="002_002_4_0" arrivalPos="200.00" arrivalSpeed="11.18" duration="38.80" routeLength="403.93" waitingTime="0.10" waitingCount="1" stopTime="0.00" timeLoss="-0.11" rerouteNo="1" devices="tripinfo_RX_82" vType="car5@RX_82" speedFactor="1.03" vaporized=""/>
    <tripinfo id="SX_65" depart="10.30" departLane="002_001_4_1" departPos="7.10" departSpeed="11.18" departDelay="0.30" arrival="52.20" arrivalLane="002_002_4_2" arrivalPos="200.00" arrivalSpeed="11.18" duration="41.90" routeLength="420.10" waitingTime="3.10" waitingCount="1" stopTime="0.00" timeLoss="4.33" rerouteNo="1" devices="tripinfo_SX_65" vType="car7@SX_65" speedFactor="1.10" vaporized=""/>
    <tripinfo id="SX_75" depart="12.00" departLane="002_001_2_1" departPos="7.10" departSpeed="11.18" departDelay="0.00" arrival="52.40" arrivalLane="002_000_2_2" arrivalPos="200.00" arrivalSpeed="11.18" duration="40.40" routeLength="420.10" waitingTime="0.40" waitingCount="1" stopTime="0.00" timeLoss="2.75" rerouteNo="1" devices="tripinfo_SX_75" vType="car7@SX_75" speedFactor="1.00" vaporized=""/>
    <tripinfo id="SX_59" depart="9.00" departLane="002_001_4_1" departPos="9.10" departSpeed="11.18" departDelay="0.00" arrival="52.50" arrivalLane="002_002_4_1" arrivalPos="200.00" arrivalSpeed="11.18" duration="43.50" routeLength="418.10" waitingTime="0.00" waitingCount="0" stopTime="0.00" timeLoss="-0.56" rerouteNo="1" devices="tripinfo_SX_59" vType="car9@SX_59" speedFactor="1.07" vaporized=""/>
    <tripinfo id="SX_68" depart="11.00" departLane="001_001_4_1" departPos="7.10" departSpeed="11.18" departDelay="0.00" arrival="52.80" arrivalLane="001_002_4_2" arrivalPos="200.00" arrivalSpeed="11.18" duration="41.80" routeLength="420.10" waitingTime="2.10" waitingCount="1" stopTime="0.00" timeLoss="4.10" rerouteNo="1" devices="tripinfo_SX_68" vType="car7@SX_68" speedFactor="1.38" vaporized=""/>
    <tripinfo id="RX_103" depart="17.00" departLane="001_001_2_0" departPos="8.10" departSpeed="11.18" departDelay="0.00" arrival="52.90" arrivalLane="000_001_3_0" arrivalPos="200.00" arrivalSpeed="11.18" duration="35.90" routeLength="400.93" waitingTime="0.00" waitingCount="0" stopTime="0.00" timeLoss="-2.62" rerouteNo="1" devices="tripinfo_RX_103" vType="car8@RX_103" speedFactor="1.05" vaporized=""/>
    <tripinfo id="RX_88" depart="14.60" departLane="002_001_3_0" departPos="9.10" departSpeed="11.18" departDelay="0.60" arrival="53.40" arrivalLane="002_002_4_0" arrivalPos="200.00" arrivalSpeed="11.18" duration="38.80" routeLength="399.93" waitingTime="0.00" waitingCount="0" stopTime="0.00" timeLoss="-5.79" rerouteNo="1" devices="tripinfo_RX_88" vType="car9@RX_88" speedFactor="1.32" vaporized=""/>
    <tripinfo id="SX_73" depart="12.00" departLane="001_001_2_1" departPos="6.10" departSpeed="11.18" departDelay="0.00" arrival="53.70" arrivalLane="001_000_2_2" arrivalPos="200.00" arrivalSpeed="11.18" duration="41.70" routeLength="421.10" waitingTime="1.90" waitingCount="2" stopTime="0.00" timeLoss="-4950.72" rerouteNo="1" devices="tripinfo_SX_73" vType="car6@SX_73" speedFactor="1.34" vaporized=""/>
    <tripinfo id="SX_98" depart="16.00" departLane="001_001_4_1" departPos="6.10" departSpeed="11.18" departDelay="0.00" arrival="53.70" arrivalLane="001_002_4_1" arrivalPos="200.00" arrivalSpeed="11.18" duration="37.70" routeLength="421.10" waitingTime="0.00" waitingCount="0" stopTime="0.00" timeLoss="0.00" rerouteNo="1" devices="tripinfo_SX_98" vType="car6@SX_98" speedFactor="1.82" vaporized=""/>
    <tripinfo id="RX_113" depart="18.00" departLane="002_001_4_0" departPos="7.10" departSpeed="11.18" departDelay="0.00" arrival="54.00" arrivalLane="003_001_1_0" arrivalPos="200.00" arrivalSpeed="11.18" duration="36.00" routeLength="401.93" waitingTime="0.00" waitingCount="0" stopTime="0.00" timeLoss="-2.43" rerouteNo="1" devices="tripinfo_RX_113" vType="car7@RX_113" speedFactor="1.22" vaporized=""/>
    <tripinfo id="RX_94" depart="15.90" departLane="002_001_3_0" departPos="7.10" departSpeed="11.18" departDelay="0.90" arrival="54.60" arrivalLane="002_002_4_0" arrivalPos="200.00" arrivalSpeed="11.18" duration="38.70" routeLength="401.93" waitingTime="0.00" waitingCount="0" stopTime="0.00" timeLoss="-0.06" rerouteNo="1" devices="tripinfo_RX_94" vType="car7@RX_94" speedFactor="1.12" vaporized=""/>
    <tripinfo id="RX_119" depart="19.10" departLane="002_001_4_0" departPos="5.10" departSpeed="11.18" departDelay="0.10" arrival="55.30" arrivalLane="003_001_1_0" arrivalPos="200.00" arrivalSpeed="11.18" duration="36.20" routeLength="403.93" waitingTime="0.00" waitingCount="0" stopTime="0.00" timeLoss="-2.20" rerouteNo="1" devices="tripinfo_RX_119" vType="car5@RX_119" speedFactor="1.83" vaporized=""/>
    <tripinfo id="SX_77" depart="12.00" departLane="002_001_4_1" departPos="8.10" departSpeed="11.18" departDelay="0.00" arrival="55.50" arrivalLane="002_002_4_2" arrivalPos="200.00" arrivalSpeed="11.18" duration="43.50" routeLength="419.10" waitingTime="3.70" waitingCount="2" stopTime="0.00" timeLoss="-4257.85" rerouteNo="1" devices="tripinfo_SX_77" vType="car8@SX_77" speedFactor="1.99" vaporized=""/>
    <tripinfo id="SX_79" depart="13.00" departLane="001_001_2_1" departPos="7.10" departSpeed="11.18" departDelay="0.00" arrival="56.00" arrivalLane="001_000_2_1" arrivalPos="200.00" arrivalSpeed="11.18" duration="43.00" routeLength="420.10" waitingTime="0.00" waitingCount="0" stopTime="0.00" timeLoss="-0.41" rerouteNo="1" devices="tripinfo_SX_79" vType="car7@SX_79" speedFactor="1.96" vaporized=""/>
    <tripinfo id="RX_118" depart="19.00" departLane="002_001_3_0" departPos="9.10" departSpeed="11.18" departDelay="0.00" arrival="56.00" arrivalLane="002_002_4_0" arrivalPos="200.00" arrivalSpeed="11.18" duration="37.00" routeLength="399.93" waitingTime="0.00" waitingCount="0" stopTime="0.00" timeLoss="-1.17" rerouteNo="1" devices="tripinfo_RX_118" vType="car9@RX_118" speedFactor="1.31" vaporized=""/>
    <tripinfo id="LX_74" depart="14.10" departLane="001_001_4_2" departPos="7.10" departSpeed="11.18" departDelay="2.10" arrival="56.80" arrivalLane="000_001_3_2" arrivalPos="200.00" arrivalSpeed="11.18" duration="42.70" routeLength="416.11" waitingTime="3.30" waitingCount="2" stopTime="0.00" timeLoss="-4328.81" rerouteNo="1" devices="tripinfo_LX_74" vType="car7@LX_74" speedFactor="1.65" vaporized=""/>
    <tripinfo id="LX_100" depart="16.00" departLane="002_001_3_2" departPos="6.10" departSpeed="11.18" departDelay="0.00" arrival="56.80" arrivalLane="002_000_2_2" arrivalPos="200.00" arrivalSpeed="11.18" duration="40.80" routeLength="417.12" waitingTime="1.20" waitingCount="2" stopTime="0.00" timeLoss="-4866.68" rerouteNo="1" devices="tripinfo_LX_100" vType="car6@LX_100" speedFactor="1.16" vaporized=""/>
    <tripinfo id="SR_0" depart="0.00" departLane="001_001_1_1" departPos="5.10" departSpeed="11.18" departDelay="0.00" arrival="57.10" arrivalLane="002_000_2_0" arrivalPos="200.00" arrivalSpeed="11.18" duration="57.10" routeLength="631.13" waitingTime="0.00" waitingCount="0" stopTime="0.00" timeLoss="-2.22" rerouteNo="2" devices="tripinfo_SR_0" vType="car5@SR_0" speedFactor="1.60" vaporized=""/>
    <tripinfo id="RX_131" depart="21.00" departLane="002_001_4_0" departPos="6.10" departSpeed="11.18" departDelay="0.00" arrival="57.10" arrivalLane="003_001_1_0" arrivalPos="200.00" arrivalSpeed="11.18" duration="36.10" routeLength="402.93" waitingTime="0.00" waitingCount="0" stopTime="0.00" timeLoss="-2.20" rerouteNo="1" devices="tripinfo_RX_131" vType="car6@RX_131" speedFactor="1.68" vaporized=""/>
    <tripinfo id="LX_93" depart="15.10" departLane="002_001_2_2" departPos="6.10" departSpeed="11.18" departDelay="0.10" arrival="57.90" arrivalLane="003_001_1_2" arrivalPos="200.00" arrivalSpeed="11.18" duration="42.80" routeLength="417.11" waitingTime="4.00" waitingCount="1" stopTime="0.00" timeLoss="-4722.40" rerouteNo="1" devices="tripinfo_LX_93" vType="car6@LX_93" speedFactor="1.37" vaporized=""/>
    <tripinfo id="SX_117" depart="19.00" departLane="002_001_2_1" departPos="9.10" departSpeed="11.18" departDelay="0.00" arrival="58.30" arrivalLane="002_000_2_1" arrivalPos="200.00" arrivalSpeed="11.18" duration="39.30" routeLength="418.10" waitingTime="0.00" waitingCount="0" stopTime="0.00" timeLoss="-5.16" rerouteNo="1" devices="tripinfo_SX_117" vType="car9@SX_117" speedFactor="1.90" vaporized=""/>