<?xml version="1.0" encoding="UTF-8"?>

<!-- generated on 06/01/21 21:27:16 by Eclipse SUMO sumo Version 1.8.0
<configuration xmlns:xsi="http://www.w3.org/2001/XMLSchema-instance" xsi:noNamespaceSchemaLocation="http://sumo.dlr.de/xsd/sumoConfiguration.xsd">

    <input>
        <net-file value="data/lane2by2.net.xml"/>
        <route-files value="data/icacc+.rou.xml"/>
    </input>

    <output>
        <tripinfo-output value="tripinfo.xml"/>
    </output>

    <time>
        <begin value="0"/>
        <step-length value="0.1"/>
    </time>

    <processing>
        <threads value="8"/>
        <collision.mingap-factor value="0"/>
        <time-to-teleport value="-1"/>
        <default.speeddev value="1"/>
    </processing>

    <report>
        <verbose value="true"/>
        <log value="error_log.txt"/>
        <no-step-log value="true"/>
    </report>

    <traci_server>
        <remote-port value="2860"/>
    </traci_server>

    <gui_only>
        <start value="true"/>
        <tracker-interval value="0.1"/>
    </gui_only>

</configuration>
-->

<tripinfos xmlns:xsi="http://www.w3.org/2001/XMLSchema-instance" xsi:noNamespaceSchemaLocation="http://sumo.dlr.de/xsd/tripinfo_file.xsd">
    <tripinfo id="LX_4" depart="0.00" departLane="002_002_2_2" departPos="7.10" departSpeed="11.18" departDelay="0.00" arrival="37.50" arrivalLane="003_002_1_2" arrivalPos="200.00" arrivalSpeed="11.18" duration="37.50" routeLength="416.11" waitingTime="0.00" waitingCount="0" stopTime="0.00" timeLoss="-2.12" rerouteNo="1" devices="tripinfo_LX_4" vType="car7@LX_4" speedFactor="1.30" vaporized=""/>
    <tripinfo id="RX_10" depart="1.30" departLane="002_002_3_0" departPos="7.10" departSpeed="11.18" departDelay="0.30" arrival="37.60" arrivalLane="002_003_4_0" arrivalPos="200.00" arrivalSpeed="11.18" duration="36.30" routeLength="401.93" waitingTime="0.00" waitingCount="0" stopTime="0.00" timeLoss="-2.41" rerouteNo="1" devices="tripinfo_RX_10" vType="car7@RX_10" speedFactor="1.10" vaporized=""/>
    <tripinfo id="RX_13" depart="2.00" departLane="002_001_4_0" departPos="9.10" departSpeed="11.18" departDelay="0.00" arrival="37.90" arrivalLane="003_001_1_0" arrivalPos="200.00" arrivalSpeed="11.18" duration="35.90" routeLength="399.93" waitingTime="0.00" waitingCount="0" stopTime="0.00" timeLoss="-2.17" rerouteNo="1" devices="tripinfo_RX_13" vType="car9@RX_13" speedFactor="1.46" vaporized=""/>
    <tripinfo id="RX_11" depart="2.50" departLane="001_001_1_0" departPos="9.10" departSpeed="11.18" departDelay="0.50" arrival="39.50" arrivalLane="001_000_2_2" arrivalPos="200.00" arrivalSpeed="11.18" duration="37.00" routeLength="410.25" waitingTime="0.00" waitingCount="0" stopTime="0.00" timeLoss="-2.12" rerouteNo="1" devices="tripinfo_RX_11" vType="car9@RX_11" speedFactor="1.83" vaporized=""/>
    <tripinfo id="RX_26" depart="4.00" departLane="001_002_2_0" departPos="9.10" departSpeed="11.18" departDelay="0.00" arrival="39.90" arrivalLane="000_002_3_0" arrivalPos="200.00" arrivalSpeed="11.18" duration="35.90" routeLength="399.93" waitingTime="0.00" waitingCount="0" stopTime="0.00" timeLoss="-2.23" rerouteNo="1" devices="tripinfo_RX_26" vType="car9@RX_26" speedFactor="1.38" vaporized=""/>
    <tripinfo id="RX_24" depart="4.00" departLane="002_001_4_0" departPos="5.10" departSpeed="11.18" departDelay="0.00" arrival="40.30" arrivalLane="003_001_1_0" arrivalPos="200.00" arrivalSpeed="11.18" duration="36.30" routeLength="403.93" waitingTime="0.00" waitingCount="0" stopTime="0.00" timeLoss="-2.61" rerouteNo="1" devices="tripinfo_RX_24" vType="car5@RX_24" speedFactor="1.00" vaporized=""/>
    <tripinfo id="RX_29" depart="5.00" departLane="001_001_1_0" departPos="7.10" departSpeed="11.18" departDelay="0.00" arrival="41.10" arrivalLane="001_000_2_0" arrivalPos="200.00" arrivalSpeed="11.18" duration="36.10" routeLength="401.93" waitingTime="0.00" waitingCount="0" stopTime="0.00" timeLoss="-2.61" rerouteNo="1" devices="tripinfo_RX_29" vType="car7@RX_29" speedFactor="1.00" vaporized=""/>
    <tripinfo id="LX_19" depart="3.00" departLane="002_001_3_2" departPos="5.10" departSpeed="11.18" departDelay="0.00" arrival="41.90" arrivalLane="002_000_2_1" arrivalPos="200.00" arrivalSpeed="11.18" duration="38.90" routeLength="423.00" waitingTime="0.00" waitingCount="0" stopTime="0.00" timeLoss="-2.14" rerouteNo="1" devices="tripinfo_LX_19" vType="car5@LX_19" speedFactor="1.05" vaporized=""/>
    <tripinfo id="RX_34" depart="5.20" departLane="001_002_2_0" departPos="6.10" departSpeed="11.18" departDelay="0.20" arrival="42.40" arrivalLane="000_002_3_2" arrivalPos="200.00" arrivalSpeed="11.18" duration="37.20" routeLength="413.26" waitingTime="0.00" waitingCount="0" stopTime="0.00" timeLoss="-2.12" rerouteNo="1" devices="tripinfo_RX_34" vType="car6@RX_34" speedFactor="1.24" vaporized=""/>
    <tripinfo id="LX_18" depart="3.30" departLane="001_001_4_2" departPos="7.10" departSpeed="11.18" departDelay="0.30" arrival="42.50" arrivalLane="000_001_3_2" arrivalPos="200.00" arrivalSpeed="11.18" duration="39.20" routeLength="416.11" waitingTime="0.00" waitingCount="0" stopTime="0.00" timeLoss="-2.18" rerouteNo="1" devices="tripinfo_LX_18" vType="car7@LX_18" speedFactor="1.26" vaporized=""/>
    <tripinfo id="LX_23" depart="4.00" departLane="002_001_3_2" departPos="7.10" departSpeed="11.18" departDelay="0.00" arrival="43.20" arrivalLane="002_000_2_2" arrivalPos="200.00" arrivalSpeed="11.18" duration="39.20" routeLength="416.12" waitingTime="0.00" waitingCount="0" stopTime="0.00" timeLoss="-2.23" rerouteNo="1" devices="tripinfo_LX_23" vType="car7@LX_23" speedFactor="1.30" vaporized=""/>
    <tripinfo id="RX_39" depart="8.10" departLane="002_001_4_0" departPos="7.10" departSpeed="11.18" departDelay="1.10" arrival="44.20" arrivalLane="003_001_1_0" arrivalPos="200.00" arrivalSpeed="11.18" duration="36.10" routeLength="401.93" waitingTime="0.00" waitingCount="0" stopTime="0.00" timeLoss="-2.61" rerouteNo="1" devices="tripinfo_RX_39" vType="car7@RX_39" speedFactor="1.00" vaporized=""/>
    <tripinfo id="RX_50" depart="8.00" departLane="002_002_3_0" departPos="5.10" departSpeed="11.18" departDelay="0.00" arrival="44.30" arrivalLane="002_003_4_0" arrivalPos="200.00" arrivalSpeed="11.18" duration="36.30" routeLength="403.93" waitingTime="0.00" waitingCount="0" stopTime="0.00" timeLoss="-2.51" rerouteNo="1" devices="tripinfo_RX_50" vType="car5@RX_50" speedFactor="1.07" vaporized=""/>
    <tripinfo id="LX_37" depart="7.00" departLane="001_001_4_2" departPos="8.10" departSpeed="11.18" departDelay="0.00" arrival="44.40" arrivalLane="000_001_3_2" arrivalPos="200.00" arrivalSpeed="11.18" duration="37.40" routeLength="415.11" waitingTime="0.00" waitingCount="0" stopTime="0.00" timeLoss="-2.12" rerouteNo="1" devices="tripinfo_LX_37" vType="car8@LX_37" speedFactor="1.16" vaporized=""/>
    <tripinfo id="LX_42" depart="7.00" departLane="002_002_2_2" departPos="6.10" departSpeed="11.18" departDelay="0.00" arrival="45.00" arrivalLane="003_002_1_2" arrivalPos="200.00" arrivalSpeed="11.18" duration="38.00" routeLength="417.11" waitingTime="0.00" waitingCount="0" stopTime="0.00" timeLoss="-2.13" rerouteNo="1" devices="tripinfo_LX_42" vType="car6@LX_42" speedFactor="1.23" vaporized=""/>
    <tripinfo id="RX_61" depart="10.00" departLane="002_001_4_0" departPos="5.10" departSpeed="11.18" departDelay="0.00" arrival="46.30" arrivalLane="003_001_1_0" arrivalPos="200.00" arrivalSpeed="11.18" duration="36.30" routeLength="403.93" waitingTime="0.00" waitingCount="0" stopTime="0.00" timeLoss="-2.41" rerouteNo="1" devices="tripinfo_RX_61" vType="car5@RX_61" speedFactor="1.17" vaporized=""/>
    <tripinfo id="LX_57" depart="9.00" departLane="002_002_2_2" departPos="8.10" departSpeed="11.18" departDelay="0.00" arrival="46.70" arrivalLane="003_002_1_2" arrivalPos="200.00" arrivalSpeed="11.18" duration="37.70" routeLength="415.11" waitingTime="0.00" waitingCount="0" stopTime="0.00" timeLoss="-2.12" rerouteNo="1" devices="tripinfo_LX_57" vType="car8@LX_57" speedFactor="1.02" vaporized=""/>
    <tripinfo id="RX_66" depart="11.00" departLane="001_001_1_0" departPos="7.10" departSpeed="11.18" departDelay="0.00" arrival="47.10" arrivalLane="001_000_2_0" arrivalPos="200.00" arrivalSpeed="11.18" duration="36.10" routeLength="401.93" waitingTime="0.00" waitingCount="0" stopTime="0.00" timeLoss="-2.12" rerouteNo="1" devices="tripinfo_RX_66" vType="car7@RX_66" speedFactor="1.97" vaporized=""/>
    <tripinfo id="RX_70" depart="11.00" departLane="002_002_3_0" departPos="7.10" departSpeed="11.18" departDelay="0.00" arrival="47.10" arrivalLane="002_003_4_0" arrivalPos="200.00" arrivalSpeed="11.18" duration="36.10" routeLength="401.93" waitingTime="0.00" waitingCount="0" stopTime="0.00" timeLoss="-2.12" rerouteNo="1" devices="tripinfo_RX_70" vType="car7@RX_70" speedFactor="1.88" vaporized=""/>
    <tripinfo id="LX_52" depart="9.00" departLane="001_001_4_2" departPos="9.10" departSpeed="11.18" departDelay="0.00" arrival="48.70" arrivalLane="000_001_3_2" arrivalPos="200.00" arrivalSpeed="11.18" duration="39.70" routeLength="414.11" waitingTime="0.00" waitingCount="0" stopTime="0.00" timeLoss="-2.24" rerouteNo="1" devices="tripinfo_LX_52" vType="car9@LX_52" speedFactor="1.34" vaporized=""/>
    <tripinfo id="RX_78" depart="13.00" departLane="002_001_4_0" departPos="9.10" departSpeed="11.18" departDelay="0.00" arrival="48.90" arrivalLane="003_001_1_0" arrivalPos="200.00" arrivalSpeed="11.18" duration="35.90" routeLength="399.93" waitingTime="0.00" waitingCount="0" stopTime="0.00" timeLoss="-2.49" rerouteNo="1" devices="tripinfo_RX_78" vType="car9@RX_78" speedFactor="1.09" vaporized=""/>
    <tripinfo id="LX_74" depart="12.00" departLane="002_002_2_2" departPos="8.10" departSpeed="11.18" departDelay="0.00" arrival="49.80" arrivalLane="003_002_1_2" arrivalPos="200.00" arrivalSpeed="11.18" duration="37.80" routeLength="415.11" waitingTime="0.00" waitingCount="0" stopTime="0.00" timeLoss="-2.13" rerouteNo="1" devices="tripinfo_LX_74" vType="car8@LX_74" speedFactor="1.65" vaporized=""/>
    <tripinfo id="LX_55" depart="9.00" departLane="001_002_1_2" departPos="5.10" departSpeed="11.18" departDelay="0.00" arrival="50.20" arrivalLane="001_003_4_2" arrivalPos="200.00" arrivalSpeed="11.18" duration="41.20" routeLength="418.12" waitingTime="0.00" waitingCount="0" stopTime="0.00" timeLoss="-2.46" rerouteNo="1" devices="tripinfo_LX_55" vType="car5@LX_55" speedFactor="1.30" vaporized=""/>
    <tripinfo id="RX_80" depart="13.00" departLane="001_002_2_0" departPos="8.10" departSpeed="11.18" departDelay="0.00" arrival="51.00" arrivalLane="000_002_3_0" arrivalPos="200.00" arrivalSpeed="11.18" duration="38.00" routeLength="400.93" waitingTime="1.40" waitingCount="1" stopTime="0.00" timeLoss="-0.14" rerouteNo="1" devices="tripinfo_RX_80" vType="car8@RX_80" speedFactor="1.96" vaporized=""/>
    <tripinfo id="RX_86" depart="14.50" departLane="001_002_2_0" departPos="9.10" departSpeed="11.18" departDelay="0.50" arrival="52.10" arrivalLane="000_002_3_0" arrivalPos="200.00" arrivalSpeed="11.18" duration="37.60" routeLength="399.93" waitingTime="0.90" waitingCount="1" stopTime="0.00" timeLoss="-0.82" rerouteNo="1" devices="tripinfo_RX_86" vType="car9@RX_86" speedFactor="1.23" vaporized=""/>
    <tripinfo id="LX_60" depart="12.30" departLane="002_001_3_2" departPos="7.10" departSpeed="11.18" departDelay="2.30" arrival="52.20" arrivalLane="002_000_2_2" arrivalPos="200.00" arrivalSpeed="11.18" duration="39.90" routeLength="416.12" waitingTime="0.80" waitingCount="2" stopTime="0.00" timeLoss="-3969.21" rerouteNo="1" devices="tripinfo_LX_60" vType="car7@LX_60" speedFactor="1.22" vaporized=""/>
    <tripinfo id="LX_76" depart="13.00" departLane="001_001_4_2" departPos="8.10" departSpeed="11.18" departDelay="0.00" arrival="52.70" arrivalLane="000_001_3_2" arrivalPos="200.00" arrivalSpeed="11.18" duration="39.70" routeLength="415.11" waitingTime="0.00" waitingCount="0" stopTime="0.00" timeLoss="-2.22" rerouteNo="1" devices="tripinfo_LX_76" vType="car8@LX_76" speedFactor="1.17" vaporized=""/>
    <tripinfo id="LX_73" depart="14.20" departLane="002_001_3_2" departPos="8.10" departSpeed="11.18" departDelay="2.20" arrival="53.20" arrivalLane="002_000_2_2" arrivalPos="200.00" arrivalSpeed="11.18" duration="39.00" routeLength="415.12" waitingTime="0.50" waitingCount="1" stopTime="0.00" timeLoss="-0.67" rerouteNo="1" devices="tripinfo_LX_73" vType="car8@LX_73" speedFactor="1.34" vaporized=""/>
    <tripinfo id="RX_98" depart="16.00" departLane="001_002_2_0" departPos="8.10" departSpeed="11.18" departDelay="0.00" arrival="53.30" arrivalLane="000_002_3_0" arrivalPos="200.00" arrivalSpeed="11.18" duration="37.30" routeLength="400.93" waitingTime="0.30" waitingCount="1" stopTime="0.00" timeLoss="-1.05" rerouteNo="1" devices="tripinfo_RX_98" vType="car8@RX_98" speedFactor="1.82" vaporized=""/>
    <tripinfo id="RX_100" depart="17.00" departLane="001_001_1_0" departPos="5.10" departSpeed="11.18" departDelay="0.00" arrival="53.30" arrivalLane="001_000_2_0" arrivalPos="200.00" arrivalSpeed="11.18" duration="36.30" routeLength="403.93" waitingTime="0.00" waitingCount="0" stopTime="0.00" timeLoss="-2.42" rerouteNo="1" devices="tripinfo_RX_100" vType="car5@RX_100" speedFactor="1.16" vaporized=""/>
    <tripinfo id="RX_103" depart="17.00" departLane="002_001_4_0" departPos="5.10" departSpeed="11.18" departDelay="0.00" arrival="53.30" arrivalLane="003_001_1_0" arrivalPos="200.00" arrivalSpeed="11.18" duration="36.30" routeLength="403.93" waitingTime="0.00" waitingCount="0" stopTime="0.00" timeLoss="-2.54" rerouteNo="1" devices="tripinfo_RX_103" vType="car5@RX_103" speedFactor="1.05" vaporized=""/>
    <tripinfo id="RX_111" depart="18.00" departLane="001_002_2_0" departPos="5.10" departSpeed="11.18" departDelay="0.00" arrival="54.40" arrivalLane="000_002_3_0" arrivalPos="200.00" arrivalSpeed="11.18" duration="36.40" routeLength="403.93" waitingTime="0.00" waitingCount="0" stopTime="0.00" timeLoss="-2.60" rerouteNo="1" devices="tripinfo_RX_111" vType="car5@RX_111" speedFactor="1.04" vaporized=""/>
    <tripinfo id="RRX_1" depart="0.00" departLane="002_001_3_0" departPos="9.10" departSpeed="11.18" departDelay="0.00" arrival="54.70" arrivalLane="003_002_1_0" arrivalPos="200.00" arrivalSpeed="11.18" duration="54.70" routeLength="608.96" waitingTime="0.00" waitingCount="0" stopTime="0.00" timeLoss="-2.14" rerouteNo="2" devices="tripinfo_RRX_1" vType="car9@RRX_1" speedFactor="1.60" vaporized=""/>
    <tripinfo id="LX_94" depart="15.00" departLane="002_002_2_2" departPos="6.10" departSpeed="11.18" departDelay="0.00" arrival="55.10" arrivalLane="003_002_1_2" arrivalPos="200.00" arrivalSpeed="11.18" duration="40.10" routeLength="417.11" waitingTime="1.60" waitingCount="1" stopTime="0.00" timeLoss="-4182.22" rerouteNo="1" devices="tripinfo_LX_94" vType="car6@LX_94" speedFactor="1.12" vaporized=""/>
    <tripinfo id="LX_105" depart="17.00" departLane="002_002_2_2" departPos="5.10" departSpeed="11.18" departDelay="0.00" arrival="56.00" arrivalLane="003_002_1_2" arrivalPos="200.00" arrivalSpeed="11.18" duration="39.00" routeLength="418.11" waitingTime="0.70" waitingCount="1" stopTime="0.00" timeLoss="-0.93" rerouteNo="1" devices="tripinfo_LX_105" vType="car5@LX_105" speedFactor="1.00" vaporized=""/>
    <tripinfo id="RX_123" depart="20.00" departLane="002_002_3_0" departPos="7.10" departSpeed="11.18" departDelay="0.00" arrival="56.10" arrivalLane="002_003_4_0" arrivalPos="200.00" arrivalSpeed="11.18" duration="36.10" routeLength="401.93" waitingTime="0.00" waitingCount="0" stopTime="0.00" timeLoss="-2.29" rerouteNo="1" devices="tripinfo_RX_123" vType="car7@RX_123" speedFactor="1.30" vaporized=""/>
    <tripinfo id="SRX_5" depart="0.00" departLane="002_002_3_1" departPos="5.10" departSpeed="11.18" departDelay="0.00" arrival="57.20" arrivalLane="001_003_4_0" arrivalPos="200.00" arrivalSpeed="11.18" duration="57.20" routeLength="631.13" waitingTime="0.00" waitingCount="0" stopTime="0.00" timeLoss="-2.19" rerouteNo="2" devices="tripinfo_SRX_5" vType="car5@SRX_5" speedFactor="1.46" vaporized=""/>
    <tripinfo id="LX_110" depart="18.00" departLane="001_002_1_2" departPos="8.10" departSpeed="11.18" departDelay="0.00" arrival="57.20" arrivalLane="001_003_4_2" arrivalPos="200.00" arrivalSpeed="11.18" duration="39.20" routeLength="415.12" waitingTime="0.00" waitingCount="0" stopTime="0.00" timeLoss="-2.19" rerouteNo="1" devices="tripinfo_LX_110" vType="car8@LX_110" speedFactor="1.52" vaporized=""/>
    <tripinfo id="RX_127" depart="21.00" departLane="002_001_4_0" departPos="6.10" departSpeed="11.18" departDelay="0.00" arrival="57.20" arrivalLane="003_001_1_0" arrivalPos="200.00" arrivalSpeed="11.18" duration="36.20" routeLength="402.93" waitingTime="0.00" waitingCount="0" stopTime="0.00" timeLoss="-2.12" rerouteNo="1" devices="tripinfo_RX_127" vType="car6@RX_127" speedFactor="1.56" vaporized=""/>
    <tripinfo id="LX_108" depart="18.00" departLane="002_001_3_2" departPos="8.10" departSpeed="11.18" departDelay="0.00" arrival="57.30" arrivalLane="002_000_2_2" arrivalPos="200.00" arrivalSpeed="11.18" duration="39.30" routeLength="415.12" waitingTime="0.00" waitingCount="0" stopTime="0.00" timeLoss="-2.25" rerouteNo="1" devices="tripinfo_LX_108" vType="car8@LX_108" speedFactor="1.78" vaporized=""/>
    <tripinfo id="LX_118" depart="20.00" departLane="001_001_4_2" departPos="9.10" departSpeed="11.18" departDelay="0.00" arrival="57.30" arrivalLane="000_001_3_2" arrivalPos="200.00" arrivalSpeed="11.18" duration="37.30" routeLength="414.11" waitingTime="0.00" waitingCount="0" stopTime="0.00" timeLoss="-2.11" rerouteNo="1" devices="tripinfo_LX_118" vType="car9@LX_118" speedFactor="1.31" vaporized=""/>
    <tripinfo id="RX_131" depart="22.00" departLane="001_001_1_0" departPos="6.10" departSpeed="11.18" departDelay="0.00" arrival="58.20" arrivalLane="001_000_2_0" arrivalPos="200.00" arrivalSpeed="11.18" duration="36.20" routeLength="402.93" waitingTime="0.00" waitingCount="0" stopTime="0.00" timeLoss="-2.12" rerouteNo="1" devices="tripinfo_RX_131" vType="car6@RX_131" speedFactor="1.68" vaporized=""/>
    <tripinfo id="LX_117" depart="19.00" departLane="002_002_2_2" departPos="7.10" departSpeed="11.18" departDelay="0.00" arrival="58.90" arrivalLane="003_002_1_2" arrivalPos="200.00" arrivalSpeed="11.18" duration="39.90" routeLength="416.11" waitingTime="1.30" waitingCount="1" stopTime="0.00" timeLoss="-4892.24" rerouteNo="1" devices="tripinfo_LX_117" vType="car7@LX_117" speedFactor="1.90" vaporized=""/>
    <tripinfo id="RX_138" depart="23.10" departLane="001_001_1_0" departPos="5.10" departSpeed="11.18" departDelay="0.10" arrival="59.40" arrivalLane="001_000_2_0" arrivalPos="200.00" arrivalSpeed="11.18" duration="36.30" routeLength="403.93" waitingTime="0.00" waitingCount="0" stopTime="0.00" timeLoss="-2.36" rerouteNo="1" devices="tripinfo_RX_138" vType="car5@RX_138" speedFactor="1.22" vaporized=""/>
    <tripinfo id="LX_122" depart="20.10" departLane="002_002_2_2" departPos="5.10" departSpeed="11.18" departDelay="0.10" arrival="59.80" arrivalLane="003_002_1_2" arrivalPos="200.00" arrivalSpeed="11.18" duration="39.70" routeLength="418.11" waitingTime="1.30" waitingCount="1" stopTime="0.00" timeLoss="-0.12" rerouteNo="1" devices="tripinfo_LX_122" vType="car5@LX_122" speedFactor="1.26" vaporized=""/>
    <tripinfo id="RX_146" depart="24.00" departLane="002_001_4_0" departPos="9.10" departSpeed="11.18" departDelay="0.00" arrival="59.90" arrivalLane="003_001_1_0" arrivalPos="200.00" arrivalSpeed="11.18" duration="35.90" routeLength="399.93" waitingTime="0.00" waitingCount="0" stopTime="0.00" timeLoss="-2.61" rerouteNo="1" devices="tripinfo_RX_146" vType="car9@RX_146" speedFactor="1.00" vaporized=""/>
    <tripinfo id="RX_135" depart="22.50" departLane="001_002_2_0" departPos="5.10" departSpeed="11.18" departDelay="0.50" arrival="60.00" arrivalLane="000_002_3_2" arrivalPos="200.00" arrivalSpeed="11.18" duration="37.50" routeLength="414.26" waitingTime="0.00" waitingCount="0" stopTime="0.00" timeLoss="-2.28" rerouteNo="1" devices="tripinfo_RX_135" vType="car5@RX_135" speedFactor="1.00" vaporized=""/>
    <tripinfo id="LLX_3" depart="0.00" departLane="001_002_2_2" departPos="6.10" departSpeed="11.18" departDelay="0.00" arrival="60.20" arrivalLane="002_003_4_2" arrivalPos="200.00" arrivalSpeed="11.18" duration="60.20" routeLength="640.33" waitingTime="0.00" waitingCount="0" stopTime="0.00" timeLoss="-2.32" rerouteNo="2" devices="tripinfo_LLX_3" vType="car6@LLX_3" speedFactor="1.83" vaporized=""/>
    <tripinfo id="LX_139" depart="23.00" departLane="001_001_4_2" departPos="8.10" departSpeed="11.18" departDelay="0.00" arrival="60.50" arrivalLane="000_001_3_2" arrivalPos="200.00" arrivalSpeed="11.18" duration="37.50" routeLength="415.11" waitingTime="0.00" waitingCount="0" stopTime="0.00" timeLoss="-2.12" rerouteNo="1" devices="tripinfo_LX_139" vType="car8@LX_139" speedFactor="1.03" vaporized=""/>
    <tripinfo id="SSX_6" depart="1.00" departLane="001_001_1_1" departPos="7.10" departSpeed="11.18" departDelay="0.00" arrival="60.70" arrivalLane="003_001_1_2" arrivalPos="200.00" arrivalSpeed="11.18" duration="59.70" routeLength="647.30" waitingTime="0.00" waitingCount="0" stopTime="0.00" timeLoss="-0.11" rerouteNo="2" devices="tripinfo_SSX_6" vType="car7@SSX_6" speedFactor="1.00" vaporized=""/>
    <tripinfo id="RX_154" depart="25.00" departLane="001_002_2_0" departPos="6.10" departSpeed="11.18" departDelay="0.00" arrival="61.20" arrivalLane="000_002_3_0" arrivalPos="200.00" arrivalSpeed="11.18" duration="36.20" routeLength="402.93" waitingTime="0.00" waitingCount="0" stopTime="0.00" timeLoss="-2.61" rerouteNo="1" devices="tripinfo_RX_154" vType="car6@RX_154" speedFactor="1.00" vaporized=""/>
    <tripinfo id="RX_153" depart="25.10" departLane="002_001_4_0" departPos="5.10" departSpeed="11.18" departDelay="0.10" arrival="61.40" arrivalLane="003_001_1_0" arrivalPos="200.00" arrivalSpeed="11.18" duration="36.30" routeLength="403.93" waitingTime="0.00" waitingCount="0" stopTime="0.00" timeLoss="-2.12" rerouteNo="1" devices="tripinfo_RX_153" vType="car5@RX_153" speedFactor="1.92" vaporized=""/>
    <tripinfo id="RSX_7" depart="1.50" departLane="002_001_3_0" departPos="9.10" departSpeed="11.18" departDelay="0.50" arrival="62.40" arrivalLane="002_003_4_0" arrivalPos="200.00" arrivalSpeed="11.18" duration="60.90" routeLength="627.13" waitingTime="0.00" waitingCount="0" stopTime="0.00" timeLoss="-0.32" rerouteNo="2" devices="tripinfo_RSX_7" vType="car9@RSX_7" speedFactor="1.91" vaporized=""/>
    <tripinfo id="RX_161" depart="26.50" departLane="001_002_2_0" departPos="9.10" departSpeed="11.18" departDelay="0.50" arrival="62.40" arrivalLane="000_002_3_0" arrivalPos="200.00" arrivalSpeed="11.18" duration="35.90" routeLength="399.93" waitingTime="0.00" waitingCount="0" stopTime="0.00" timeLoss="-2.45" rerouteNo="1" devices="tripinfo_RX_161" vType="car9@RX_161" speedFactor="1.13" vaporized=""/>
    <tripinfo id="RSX_21" depart="3.70" departLane="001_002_1_0" departPos="6.10" departSpeed="11.18" departDelay="0.70" arrival="62.50" arrivalLane="001_000_2_2" arrivalPos="200.00" arrivalSpeed="11.18" duration="58.80" routeLength="630.13" waitingTime="0.00" waitingCount="0" stopTime="0.00" timeLoss="-0.64" rerouteNo="2" devices="tripinfo_RSX_21" vType="car6@RSX_21" speedFactor="1.20" vaporized=""/>
    <tripinfo id="RX_159" depart="26.40" departLane="002_001_4_0" departPos="7.10" departSpeed="11.18" departDelay="0.40" arrival="62.50" arrivalLane="003_001_1_0" arrivalPos="200.00" arrivalSpeed="11.18" duration="36.10" routeLength="401.93" waitingTime="0.00" waitingCount="0" stopTime="0.00" timeLoss="-2.12" rerouteNo="1" devices="tripinfo_RX_159" vType="car7@RX_159" speedFactor="1.95" vaporized=""/>
    <tripinfo id="LX_145" depart="24.00" departLane="002_001_3_2" departPos="5.10" departSpeed="11.18" departDelay="0.00" arrival="62.70" arrivalLane="002_000_2_2" arrivalPos="200.00" arrivalSpeed="11.18" duration="38.70" routeLength="418.12" waitingTime="0.00" waitingCount="0" stopTime="0.00" timeLoss="-2.15" rerouteNo="1" devices="tripinfo_LX_145" vType="car5@LX_145" speedFactor="1.88" vaporized=""/>
    <tripinfo id="SSX_2" depart="0.00" departLane="002_001_4_1" departPos="7.10" departSpeed="11.18" departDelay="0.00" arrival="63.00" arrivalLane="002_003_4_2" arrivalPos="200.00" arrivalSpeed="11.18" duration="63.00" routeLength="647.30" waitingTime="4.10" waitingCount="1" stopTime="0.00" timeLoss="-4532.57" rerouteNo="2" devices="tripinfo_SSX_2" vType="car7@SSX_2" speedFactor="1.10" vaporized=""/>
    <tripinfo id="SRX_36" depart="6.00" departLane="001_002_2_1" departPos="9.10" departSpeed="11.18" departDelay="0.00" arrival="63.30" arrivalLane="000_001_3_0" arrivalPos="200.00" arrivalSpeed="11.18" duration="57.30" routeLength="627.13" waitingTime="0.00" waitingCount="0" stopTime="0.00" timeLoss="-2.17" rerouteNo="2" devices="tripinfo_SRX_36" vType="car9@SRX_36" speedFactor="1.82" vaporized=""/>
    <tripinfo id="LSX_20" depart="3.00" departLane="002_001_4_2" departPos="9.10" departSpeed="11.18" departDelay="0.00" arrival="63.40" arrivalLane="000_001_3_2" arrivalPos="200.00" arrivalSpeed="11.18" duration="60.40" routeLength="641.31" waitingTime="0.00" waitingCount="0" stopTime="0.00" timeLoss="-0.29" rerouteNo="2" devices="tripinfo_LSX_20" vType="car9@LSX_20" speedFactor="1.47" vaporized=""/>
    <tripinfo id="SSX_8" depart="1.00" departLane="001_002_1_1" departPos="5.10" departSpeed="11.18" departDelay="0.00" arrival="63.50" arrivalLane="003_002_1_0" arrivalPos="200.00" arrivalSpeed="11.18" duration="62.50" routeLength="649.30" waitingTime="0.00" waitingCount="0" stopTime="0.00" timeLoss="-0.55" rerouteNo="2" devices="tripinfo_SSX_8" vType="car5@SSX_8" speedFactor="1.26" vaporized=""/>
    <tripinfo id="SSX_14" depart="2.50" departLane="001_002_1_1" departPos="9.10" departSpeed="11.18" departDelay="0.50" arrival="63.70" arrivalLane="003_002_1_1" arrivalPos="200.00" arrivalSpeed="11.18" duration="61.20" routeLength="645.30" waitingTime="0.00" waitingCount="0" stopTime="0.00" timeLoss="-0.76" rerouteNo="2" devices="tripinfo_SSX_14" vType="car9@SSX_14" speedFactor="1.18" vaporized=""/>
    <tripinfo id="RX_156" depart="25.00" departLane="002_002_3_0" departPos="5.10" departSpeed="11.18" departDelay="0.00" arrival="63.90" arrivalLane="002_003_4_0" arrivalPos="200.00" arrivalSpeed="11.18" duration="38.90" routeLength="403.93" waitingTime="0.00" waitingCount="0" stopTime="0.00" timeLoss="-3.87" rerouteNo="1" devices="tripinfo_RX_156" vType="car5@RX_156" speedFactor="1.02" vaporized=""/>
    <tripinfo id="LSX_28" depart="4.00" departLane="002_002_3_2" departPos="9.10" departSpeed="11.18" departDelay="0.00" arrival="64.00" arrivalLane="002_000_2_1" arrivalPos="200.00" arrivalSpeed="11.18" duration="60.00" routeLength="641.32" waitingTime="0.00" waitingCount="0" stopTime="0.00" timeLoss="-0.10" rerouteNo="2" devices="tripinfo_LSX_28" vType="car9@LSX_28" speedFactor="1.88" vaporized=""/>
    <tripinfo id="RX_170" depart="28.00" departLane="001_002_2_0" departPos="8.10" departSpeed="11.18" departDelay="0.00" arrival="64.00" arrivalLane="000_002_3_0" arrivalPos="200.00" arrivalSpeed="11.18" duration="36.00" routeLength="400.93" waitingTime="0.00" waitingCount="0" stopTime="0.00" timeLoss="-2.48" rerouteNo="1" devices="tripinfo_RX_170" vType="car8@RX_170" speedFactor="1.10" vaporized=""/>
    <tripinfo id="SSX_30" depart="5.00" departLane="001_001_4_1" departPos="7.10" departSpeed="11.18" departDelay="0.00" arrival="64.10" arrivalLane="001_003_4_1" arrivalPos="200.00" arrivalSpeed="11.18" duration="59.10" routeLength="647.30" waitingTime="0.00" waitingCount="0" stopTime="0.00" timeLoss="-0.05" rerouteNo="2" devices="tripinfo_SSX_30" vType="car7@SSX_30" speedFactor="1.17" vaporized=""/>
    <tripinfo id="RX_169" depart="28.00" departLane="002_001_4_0" departPos="6.10" departSpeed="11.18" departDelay="0.00" arrival="64.20" arrivalLane="003_001_1_0" arrivalPos="200.00" arrivalSpeed="11.18" duration="36.20" routeLength="402.93" waitingTime="0.00" waitingCount="0" stopTime="0.00" timeLoss="-2.12" rerouteNo="1" devices="tripinfo_RX_169" vType="car6@RX_169" speedFactor="1.57" vaporized=""/>
    <tripinfo id="LX_164" depart="27.00" departLane="002_001_3_2" departPos="7.10" departSpeed="11.18" departDelay="0.00" arrival="64.50" arrivalLane="002_000_2_2" arrivalPos="200.00" arrivalSpeed="11.18" duration="37.50" routeLength="416.12" waitingTime="0.00" waitingCount="0" stopTime="0.00" timeLoss="-2.12" rerouteNo="1" devices="tripinfo_LX_164" vType="car7@LX_164" speedFactor="1.24" vaporized=""/>
    <tripinfo id="RX_167" depart="27.00" departLane="002_002_3_0" departPos="7.10" departSpeed="11.18" departDelay="0.00" arrival="64.70" arrivalLane="002_003_4_0" arrivalPos="200.00" arrivalSpeed="11.18" duration="37.70" routeLength="401.93" waitingTime="0.00" waitingCount="0" stopTime="0.00" timeLoss="-1.91" rerouteNo="1" devices="tripinfo_RX_167" vType="car7@RX_167" speedFactor="1.41" vaporized=""/>
    <tripinfo id="LLX_17" depart="3.80" departLane="001_001_1_2" departPos="7.10" departSpeed="11.18" departDelay="0.80" arrival="65.30" arrivalLane="000_002_3_2" arrivalPos="200.00" arrivalSpeed="11.18" duration="61.50" routeLength="639.33" waitingTime="0.00" waitingCount="0" stopTime="0.00" timeLoss="-3.41" rerouteNo="2" devices="tripinfo_LLX_17" vType="car7@LLX_17" speedFactor="1.91" vaporized=""/>
    <tripinfo id="LX_136" depart="22.00" departLane="002_002_2_2" departPos="8.10" departSpeed="11.18" departDelay="0.00" arrival="65.40" arrivalLane="003_002_1_2" arrivalPos="200.00" arrivalSpeed="11.18" duration="43.40" routeLength="415.11" waitingTime="4.40" waitingCount="2" stopTime="0.00" timeLoss="-4390.87" rerouteNo="1" devices="tripinfo_LX_136" vType="car8@LX_136" speedFactor="1.35" vaporized=""/>