<?xml version="1.0" encoding="UTF-8"?>

<!-- generated on 07/12/20 16:38:40 by Eclipse SUMO GUI Version 1.6.0
<configuration xmlns:xsi="http://www.w3.org/2001/XMLSchema-instance" xsi:noNamespaceSchemaLocation="http://sumo.dlr.de/xsd/sumoConfiguration.xsd">

    <input>
        <net-file value="data/net/lane2by2.net.xml"/>
        <route-files value="data/routes/2_0.1_0.rou.xml"/>
    </input>

    <output>
        <tripinfo-output value="tripinfo.xml"/>
    </output>

    <time>
        <begin value="0"/>
        <step-length value="0.1"/>
    </time>

    <processing>
        <collision.mingap-factor value="0"/>
        <time-to-teleport value="-1"/>
        <lanechange.duration value="0.5"/>
    </processing>

    <report>
        <verbose value="true"/>
        <no-step-log value="true"/>
    </report>

    <traci_server>
        <remote-port value="12576"/>
    </traci_server>

    <gui_only>
        <start value="true"/>
        <tracker-interval value="0.1"/>
    </gui_only>

</configuration>
-->

<tripinfos xmlns:xsi="http://www.w3.org/2001/XMLSchema-instance" xsi:noNamespaceSchemaLocation="http://sumo.dlr.de/xsd/tripinfo_file.xsd">
    <tripinfo id="car_8" depart="13.00" departLane="001_002_1_0" departPos="7.10" departSpeed="11.18" departDelay="0.00" arrival="86.10" arrivalLane="001_003_4_2" arrivalPos="400.00" arrivalSpeed="11.18" duration="73.10" routeLength="816.12" waitingTime="0.00" waitingCount="0" stopTime="0.00" timeLoss="-0.05" rerouteNo="2" devices="tripinfo_car_8" vType="car7@car_8" speedFactor="1.08" vaporized=""/>
    <tripinfo id="car_14" depart="21.00" departLane="002_002_3_2" departPos="8.10" departSpeed="11.18" departDelay="0.00" arrival="92.70" arrivalLane="002_003_4_0" arrivalPos="400.00" arrivalSpeed="11.18" duration="71.70" routeLength="800.93" waitingTime="0.00" waitingCount="0" stopTime="0.00" timeLoss="-0.57" rerouteNo="2" devices="tripinfo_car_14" vType="car8@car_14" speedFactor="1.00" vaporized=""/>
    <tripinfo id="car_0" depart="4.00" departLane="001_001_4_1" departPos="8.10" departSpeed="11.18" departDelay="0.00" arrival="94.50" arrivalLane="002_000_2_0" arrivalPos="400.00" arrivalSpeed="11.18" duration="90.50" routeLength="1009.96" waitingTime="0.00" waitingCount="0" stopTime="0.00" timeLoss="-5.14" rerouteNo="3" devices="tripinfo_car_0" vType="car8@car_0" speedFactor="1.06" vaporized=""/>
    <tripinfo id="car_15" depart="22.00" departLane="001_001_4_1" departPos="9.10" departSpeed="11.18" departDelay="0.00" arrival="94.90" arrivalLane="000_001_3_2" arrivalPos="400.00" arrivalSpeed="11.18" duration="72.90" routeLength="814.11" waitingTime="0.00" waitingCount="0" stopTime="0.00" timeLoss="-0.12" rerouteNo="2" devices="tripinfo_car_15" vType="car9@car_15" speedFactor="1.05" vaporized=""/>
    <tripinfo id="car_1" depart="4.00" departLane="002_002_2_2" departPos="7.10" departSpeed="11.18" departDelay="0.00" arrival="96.10" arrivalLane="000_002_3_2" arrivalPos="400.00" arrivalSpeed="11.18" duration="92.10" routeLength="1029.13" waitingTime="0.00" waitingCount="0" stopTime="0.00" timeLoss="-0.50" rerouteNo="3" devices="tripinfo_car_1" vType="car7@car_1" speedFactor="1.06" vaporized=""/>
</tripinfos>
