<?xml version="1.0" encoding="UTF-8"?>

<!-- generated on 04/15/21 18:03:15 by Eclipse SUMO GUI Version 1.8.0
<configuration xmlns:xsi="http://www.w3.org/2001/XMLSchema-instance" xsi:noNamespaceSchemaLocation="http://sumo.dlr.de/xsd/sumoConfiguration.xsd">

    <input>
        <net-file value="data/three_inter.net.xml"/>
        <route-files value="data/icacc+.rou.xml"/>
    </input>

    <output>
        <tripinfo-output value="tripinfo.xml"/>
    </output>

    <time>
        <begin value="0"/>
        <step-length value="0.1"/>
    </time>

    <processing>
        <threads value="8"/>
        <collision.mingap-factor value="0"/>
        <time-to-teleport value="-1"/>
        <default.speeddev value="1"/>
    </processing>

    <report>
        <verbose value="true"/>
        <log value="error_log.txt"/>
        <no-step-log value="true"/>
    </report>

    <traci_server>
        <remote-port value="7684"/>
    </traci_server>

    <gui_only>
        <start value="true"/>
        <tracker-interval value="0.1"/>
    </gui_only>

</configuration>
-->

<tripinfos xmlns:xsi="http://www.w3.org/2001/XMLSchema-instance" xsi:noNamespaceSchemaLocation="http://sumo.dlr.de/xsd/tripinfo_file.xsd">
    <tripinfo id="SX_0" depart="0.00" departLane="001_001_2_1" departPos="8.10" departSpeed="11.18" departDelay="0.00" arrival="37.50" arrivalLane="001_000_2_2" arrivalPos="200.00" arrivalSpeed="11.18" duration="37.50" routeLength="419.10" waitingTime="0.00" waitingCount="0" stopTime="0.00" timeLoss="0.00" rerouteNo="1" devices="tripinfo_SX_0" vType="car8@SX_0" speedFactor="1.60" vaporized=""/>
    <tripinfo id="SX_2" depart="0.00" departLane="002_001_2_1" departPos="7.10" departSpeed="11.18" departDelay="0.00" arrival="37.60" arrivalLane="002_000_2_2" arrivalPos="200.00" arrivalSpeed="11.18" duration="37.60" routeLength="420.10" waitingTime="0.00" waitingCount="0" stopTime="0.00" timeLoss="0.00" rerouteNo="1" devices="tripinfo_SX_2" vType="car7@SX_2" speedFactor="1.10" vaporized=""/>
    <tripinfo id="RX_9" depart="1.00" departLane="003_001_3_0" departPos="8.10" departSpeed="11.18" departDelay="0.00" arrival="37.90" arrivalLane="003_002_4_0" arrivalPos="200.00" arrivalSpeed="11.18" duration="36.90" routeLength="400.93" waitingTime="0.00" waitingCount="0" stopTime="0.00" timeLoss="-2.23" rerouteNo="1" devices="tripinfo_RX_9" vType="car8@RX_9" speedFactor="1.47" vaporized=""/>
    <tripinfo id="LX_4" depart="0.00" departLane="003_001_3_2" departPos="7.10" departSpeed="11.18" departDelay="0.00" arrival="38.00" arrivalLane="003_000_2_2" arrivalPos="200.00" arrivalSpeed="11.18" duration="38.00" routeLength="416.11" waitingTime="0.00" waitingCount="0" stopTime="0.00" timeLoss="-2.13" rerouteNo="1" devices="tripinfo_LX_4" vType="car7@LX_4" speedFactor="1.30" vaporized=""/>
    <tripinfo id="RX_12" depart="2.00" departLane="001_001_2_0" departPos="6.10" departSpeed="11.18" departDelay="0.00" arrival="38.30" arrivalLane="000_001_3_0" arrivalPos="200.00" arrivalSpeed="11.18" duration="36.30" routeLength="402.93" waitingTime="0.00" waitingCount="0" stopTime="0.00" timeLoss="-2.12" rerouteNo="1" devices="tripinfo_RX_12" vType="car6@RX_12" speedFactor="1.83" vaporized=""/>
    <tripinfo id="SX_7" depart="1.00" departLane="001_001_4_1" departPos="9.10" departSpeed="11.18" departDelay="0.00" arrival="38.40" arrivalLane="001_002_4_2" arrivalPos="200.00" arrivalSpeed="11.18" duration="37.40" routeLength="418.10" waitingTime="0.00" waitingCount="0" stopTime="0.00" timeLoss="0.00" rerouteNo="1" devices="tripinfo_SX_7" vType="car9@SX_7" speedFactor="1.91" vaporized=""/>
    <tripinfo id="SX_8" depart="1.00" departLane="002_001_4_1" departPos="5.10" departSpeed="11.18" departDelay="0.00" arrival="38.80" arrivalLane="002_002_4_2" arrivalPos="200.00" arrivalSpeed="11.18" duration="37.80" routeLength="422.10" waitingTime="0.00" waitingCount="0" stopTime="0.00" timeLoss="0.00" rerouteNo="1" devices="tripinfo_SX_8" vType="car5@SX_8" speedFactor="1.26" vaporized=""/>
    <tripinfo id="RX_16" depart="2.10" departLane="003_001_4_0" departPos="5.10" departSpeed="11.18" departDelay="0.10" arrival="38.90" arrivalLane="004_001_1_0" arrivalPos="200.00" arrivalSpeed="11.18" duration="36.80" routeLength="403.93" waitingTime="0.00" waitingCount="0" stopTime="0.00" timeLoss="-2.09" rerouteNo="1" devices="tripinfo_RX_16" vType="car5@RX_16" speedFactor="1.46" vaporized=""/>
    <tripinfo id="SX_3" depart="0.00" departLane="003_001_2_1" departPos="6.10" departSpeed="11.18" departDelay="0.00" arrival="39.40" arrivalLane="003_000_2_1" arrivalPos="200.00" arrivalSpeed="11.18" duration="39.40" routeLength="421.10" waitingTime="0.00" waitingCount="0" stopTime="0.00" timeLoss="-0.10" rerouteNo="1" devices="tripinfo_SX_3" vType="car6@SX_3" speedFactor="1.83" vaporized=""/>
    <tripinfo id="SX_10" depart="1.00" departLane="003_001_4_1" departPos="7.10" departSpeed="11.18" departDelay="0.00" arrival="39.50" arrivalLane="003_002_4_0" arrivalPos="200.00" arrivalSpeed="11.18" duration="38.50" routeLength="420.10" waitingTime="0.00" waitingCount="0" stopTime="0.00" timeLoss="-0.05" rerouteNo="1" devices="tripinfo_SX_10" vType="car7@SX_10" speedFactor="0.91" vaporized=""/>
    <tripinfo id="SX_18" depart="3.00" departLane="001_001_2_1" departPos="7.10" departSpeed="11.18" departDelay="0.00" arrival="40.70" arrivalLane="001_000_2_2" arrivalPos="200.00" arrivalSpeed="11.18" duration="37.70" routeLength="420.10" waitingTime="0.00" waitingCount="0" stopTime="0.00" timeLoss="0.00" rerouteNo="1" devices="tripinfo_SX_18" vType="car7@SX_18" speedFactor="1.91" vaporized=""/>
    <tripinfo id="SX_21" depart="3.00" departLane="002_001_4_1" departPos="6.10" departSpeed="11.18" departDelay="0.00" arrival="40.70" arrivalLane="002_002_4_1" arrivalPos="200.00" arrivalSpeed="11.18" duration="37.70" routeLength="421.10" waitingTime="0.00" waitingCount="0" stopTime="0.00" timeLoss="0.00" rerouteNo="1" devices="tripinfo_SX_21" vType="car6@SX_21" speedFactor="1.20" vaporized=""/>
    <tripinfo id="RX_15" depart="2.40" departLane="003_001_3_0" departPos="8.10" departSpeed="11.18" departDelay="0.40" arrival="40.80" arrivalLane="003_002_4_0" arrivalPos="200.00" arrivalSpeed="11.18" duration="38.40" routeLength="400.93" waitingTime="0.00" waitingCount="0" stopTime="0.00" timeLoss="-2.58" rerouteNo="1" devices="tripinfo_RX_15" vType="car8@RX_15" speedFactor="1.10" vaporized=""/>
    <tripinfo id="SX_19" depart="3.00" departLane="001_001_4_1" departPos="5.10" departSpeed="11.18" departDelay="0.00" arrival="41.60" arrivalLane="001_002_4_2" arrivalPos="200.00" arrivalSpeed="11.18" duration="38.60" routeLength="422.10" waitingTime="0.00" waitingCount="0" stopTime="0.00" timeLoss="-0.02" rerouteNo="1" devices="tripinfo_SX_19" vType="car5@SX_19" speedFactor="1.05" vaporized=""/>
    <tripinfo id="LX_22" depart="3.00" departLane="003_001_3_2" departPos="5.10" departSpeed="11.18" departDelay="0.00" arrival="41.60" arrivalLane="003_000_2_2" arrivalPos="200.00" arrivalSpeed="11.18" duration="38.60" routeLength="418.11" waitingTime="0.00" waitingCount="0" stopTime="0.00" timeLoss="-2.14" rerouteNo="1" devices="tripinfo_LX_22" vType="car5@LX_22" speedFactor="1.47" vaporized=""/>
    <tripinfo id="SX_24" depart="4.00" departLane="002_001_2_1" departPos="5.10" departSpeed="11.18" departDelay="0.00" arrival="41.80" arrivalLane="002_000_2_1" arrivalPos="200.00" arrivalSpeed="11.18" duration="37.80" routeLength="422.10" waitingTime="0.00" waitingCount="0" stopTime="0.00" timeLoss="0.00" rerouteNo="1" devices="tripinfo_SX_24" vType="car5@SX_24" speedFactor="1.00" vaporized=""/>
    <tripinfo id="SX_25" depart="4.50" departLane="002_001_4_1" departPos="9.10" departSpeed="11.18" departDelay="0.50" arrival="42.70" arrivalLane="002_002_4_2" arrivalPos="200.00" arrivalSpeed="11.18" duration="38.20" routeLength="418.10" waitingTime="0.00" waitingCount="0" stopTime="0.00" timeLoss="-0.02" rerouteNo="1" devices="tripinfo_SX_25" vType="car9@SX_25" speedFactor="1.92" vaporized=""/>
    <tripinfo id="SX_32" depart="5.30" departLane="002_001_2_1" departPos="7.10" departSpeed="11.18" departDelay="0.30" arrival="42.90" arrivalLane="002_000_2_0" arrivalPos="200.00" arrivalSpeed="11.18" duration="37.60" routeLength="420.10" waitingTime="0.00" waitingCount="0" stopTime="0.00" timeLoss="0.00" rerouteNo="1" devices="tripinfo_SX_32" vType="car7@SX_32" speedFactor="1.03" vaporized=""/>
    <tripinfo id="SX_30" depart="5.00" departLane="001_001_2_1" departPos="7.10" departSpeed="11.18" departDelay="0.00" arrival="43.10" arrivalLane="001_000_2_1" arrivalPos="200.00" arrivalSpeed="11.18" duration="38.10" routeLength="420.10" waitingTime="0.00" waitingCount="0" stopTime="0.00" timeLoss="-0.01" rerouteNo="1" devices="tripinfo_SX_30" vType="car7@SX_30" speedFactor="1.17" vaporized=""/>
    <tripinfo id="RX_43" depart="7.00" departLane="003_001_4_0" departPos="7.10" departSpeed="11.18" departDelay="0.00" arrival="43.10" arrivalLane="004_001_1_0" arrivalPos="200.00" arrivalSpeed="11.18" duration="36.10" routeLength="401.93" waitingTime="0.00" waitingCount="0" stopTime="0.00" timeLoss="-2.94" rerouteNo="1" devices="tripinfo_RX_43" vType="car7@RX_43" speedFactor="0.80" vaporized=""/>
    <tripinfo id="RX_42" depart="7.00" departLane="003_001_3_0" departPos="6.10" departSpeed="11.18" departDelay="0.00" arrival="43.20" arrivalLane="003_002_4_0" arrivalPos="200.00" arrivalSpeed="11.18" duration="36.20" routeLength="402.93" waitingTime="0.00" waitingCount="0" stopTime="0.00" timeLoss="-2.35" rerouteNo="1" devices="tripinfo_RX_42" vType="car6@RX_42" speedFactor="1.23" vaporized=""/>
    <tripinfo id="SX_33" depart="5.00" departLane="002_001_4_1" departPos="5.10" departSpeed="11.18" departDelay="0.00" arrival="44.20" arrivalLane="002_002_4_0" arrivalPos="200.00" arrivalSpeed="11.18" duration="39.20" routeLength="422.10" waitingTime="0.00" waitingCount="0" stopTime="0.00" timeLoss="-0.04" rerouteNo="1" devices="tripinfo_SX_33" vType="car5@SX_33" speedFactor="1.00" vaporized=""/>
    <tripinfo id="SX_37" depart="7.00" departLane="001_001_2_1" departPos="8.10" departSpeed="11.18" departDelay="0.00" arrival="44.50" arrivalLane="001_000_2_2" arrivalPos="200.00" arrivalSpeed="11.18" duration="37.50" routeLength="419.10" waitingTime="0.00" waitingCount="0" stopTime="0.00" timeLoss="0.00" rerouteNo="1" devices="tripinfo_SX_37" vType="car8@SX_37" speedFactor="1.16" vaporized=""/>
    <tripinfo id="SX_39" depart="7.00" departLane="002_001_2_1" departPos="7.10" departSpeed="11.18" departDelay="0.00" arrival="44.60" arrivalLane="002_000_2_1" arrivalPos="200.00" arrivalSpeed="11.18" duration="37.60" routeLength="420.10" waitingTime="0.00" waitingCount="0" stopTime="0.00" timeLoss="0.00" rerouteNo="1" devices="tripinfo_SX_39" vType="car7@SX_39" speedFactor="1.10" vaporized=""/>
    <tripinfo id="SX_36" depart="6.00" departLane="003_001_2_1" departPos="9.10" departSpeed="11.18" departDelay="0.00" arrival="45.00" arrivalLane="003_000_2_2" arrivalPos="200.00" arrivalSpeed="11.18" duration="39.00" routeLength="418.10" waitingTime="0.60" waitingCount="1" stopTime="0.00" timeLoss="-4526.48" rerouteNo="1" devices="tripinfo_SX_36" vType="car9@SX_36" speedFactor="1.82" vaporized=""/>
    <tripinfo id="SX_23" depart="4.00" departLane="001_001_4_1" departPos="7.10" departSpeed="11.18" departDelay="0.00" arrival="45.20" arrivalLane="001_002_4_2" arrivalPos="200.00" arrivalSpeed="11.18" duration="41.20" routeLength="420.10" waitingTime="1.80" waitingCount="1" stopTime="0.00" timeLoss="-4753.32" rerouteNo="1" devices="tripinfo_SX_23" vType="car7@SX_23" speedFactor="1.30" vaporized=""/>
    <tripinfo id="SX_45" depart="8.00" departLane="001_001_2_1" departPos="6.10" departSpeed="11.18" departDelay="0.00" arrival="45.70" arrivalLane="001_000_2_0" arrivalPos="200.00" arrivalSpeed="11.18" duration="37.70" routeLength="421.10" waitingTime="0.00" waitingCount="0" stopTime="0.00" timeLoss="0.00" rerouteNo="1" devices="tripinfo_SX_45" vType="car6@SX_45" speedFactor="1.56" vaporized=""/>
    <tripinfo id="SX_40" depart="7.00" departLane="002_001_4_1" departPos="9.10" departSpeed="11.18" departDelay="0.00" arrival="46.00" arrivalLane="002_002_4_2" arrivalPos="200.00" arrivalSpeed="11.18" duration="39.00" routeLength="418.10" waitingTime="0.00" waitingCount="0" stopTime="0.00" timeLoss="-0.11" rerouteNo="1" devices="tripinfo_SX_40" vType="car9@SX_40" speedFactor="1.40" vaporized=""/>
    <tripinfo id="RX_59" depart="10.00" departLane="001_001_2_0" departPos="8.10" departSpeed="11.18" departDelay="0.00" arrival="46.00" arrivalLane="000_001_3_0" arrivalPos="200.00" arrivalSpeed="11.18" duration="36.00" routeLength="400.93" waitingTime="0.00" waitingCount="0" stopTime="0.00" timeLoss="-2.52" rerouteNo="1" devices="tripinfo_RX_59" vType="car8@RX_59" speedFactor="1.07" vaporized=""/>
    <tripinfo id="RX_65" depart="10.00" departLane="003_001_4_0" departPos="8.10" departSpeed="11.18" departDelay="0.00" arrival="46.00" arrivalLane="004_001_1_0" arrivalPos="200.00" arrivalSpeed="11.18" duration="36.00" routeLength="400.93" waitingTime="0.00" waitingCount="0" stopTime="0.00" timeLoss="-2.48" rerouteNo="1" devices="tripinfo_RX_65" vType="car8@RX_65" speedFactor="1.10" vaporized=""/>
    <tripinfo id="SX_38" depart="7.00" departLane="001_001_4_1" departPos="8.10" departSpeed="11.18" departDelay="0.00" arrival="46.10" arrivalLane="001_002_4_2" arrivalPos="200.00" arrivalSpeed="11.18" duration="39.10" routeLength="419.10" waitingTime="1.00" waitingCount="1" stopTime="0.00" timeLoss="1.56" rerouteNo="1" devices="tripinfo_SX_38" vType="car8@SX_38" speedFactor="1.18" vaporized=""/>
    <tripinfo id="SX_50" depart="8.00" departLane="003_001_4_1" departPos="5.10" departSpeed="11.18" departDelay="0.00" arrival="46.90" arrivalLane="003_002_4_2" arrivalPos="200.00" arrivalSpeed="11.18" duration="38.90" routeLength="422.10" waitingTime="0.20" waitingCount="1" stopTime="0.00" timeLoss="-4058.71" rerouteNo="1" devices="tripinfo_SX_50" vType="car5@SX_50" speedFactor="1.07" vaporized=""/>
    <tripinfo id="RX_51" depart="9.00" departLane="001_001_1_0" departPos="6.10" departSpeed="11.18" departDelay="0.00" arrival="46.90" arrivalLane="001_000_2_0" arrivalPos="200.00" arrivalSpeed="11.18" duration="37.90" routeLength="402.93" waitingTime="0.00" waitingCount="0" stopTime="0.00" timeLoss="-2.18" rerouteNo="1" devices="tripinfo_RX_51" vType="car6@RX_51" speedFactor="1.87" vaporized=""/>
    <tripinfo id="LX_64" depart="10.00" departLane="003_001_3_2" departPos="5.10" departSpeed="11.18" departDelay="0.00" arrival="47.70" arrivalLane="003_000_2_2" arrivalPos="200.00" arrivalSpeed="11.18" duration="37.70" routeLength="418.11" waitingTime="0.00" waitingCount="0" stopTime="0.00" timeLoss="-2.12" rerouteNo="1" devices="tripinfo_LX_64" vType="car5@LX_64" speedFactor="1.57" vaporized=""/>
    <tripinfo id="RX_74" depart="12.00" departLane="003_001_3_0" departPos="8.10" departSpeed="11.18" departDelay="0.00" arrival="48.00" arrivalLane="003_002_4_0" arrivalPos="200.00" arrivalSpeed="11.18" duration="36.00" routeLength="400.93" waitingTime="0.00" waitingCount="0" stopTime="0.00" timeLoss="-2.12" rerouteNo="1" devices="tripinfo_RX_74" vType="car8@RX_74" speedFactor="1.65" vaporized=""/>
    <tripinfo id="RX_72" depart="12.00" departLane="001_001_2_0" departPos="5.10" departSpeed="11.18" departDelay="0.00" arrival="48.30" arrivalLane="000_001_3_0" arrivalPos="200.00" arrivalSpeed="11.18" duration="36.30" routeLength="403.93" waitingTime="0.00" waitingCount="0" stopTime="0.00" timeLoss="-2.44" rerouteNo="1" devices="tripinfo_RX_72" vType="car5@RX_72" speedFactor="1.14" vaporized=""/>
    <tripinfo id="SX_63" depart="10.00" departLane="003_001_2_1" departPos="5.10" departSpeed="11.18" departDelay="0.00" arrival="48.50" arrivalLane="003_000_2_0" arrivalPos="200.00" arrivalSpeed="11.18" duration="38.50" routeLength="422.10" waitingTime="0.00" waitingCount="0" stopTime="0.00" timeLoss="-0.02" rerouteNo="1" devices="tripinfo_SX_63" vType="car5@SX_63" speedFactor="1.91" vaporized=""/>
    <tripinfo id="SX_52" depart="9.00" departLane="001_001_2_1" departPos="9.10" departSpeed="11.18" departDelay="0.00" arrival="48.70" arrivalLane="001_000_2_1" arrivalPos="200.00" arrivalSpeed="11.18" duration="39.70" routeLength="418.10" waitingTime="0.00" waitingCount="0" stopTime="0.00" timeLoss="-0.12" rerouteNo="1" devices="tripinfo_SX_52" vType="car9@SX_52" speedFactor="1.34" vaporized=""/>
    <tripinfo id="LX_48" depart="8.00" departLane="003_001_2_2" departPos="9.10" departSpeed="11.18" departDelay="0.00" arrival="48.80" arrivalLane="004_001_1_2" arrivalPos="200.00" arrivalSpeed="11.18" duration="40.80" routeLength="414.12" waitingTime="2.00" waitingCount="2" stopTime="0.00" timeLoss="-4712.66" rerouteNo="1" devices="tripinfo_LX_48" vType="car9@LX_48" speedFactor="1.32" vaporized=""/>
    <tripinfo id="SX_53" depart="9.00" departLane="001_001_4_1" departPos="5.10" departSpeed="11.18" departDelay="0.00" arrival="49.40" arrivalLane="001_002_4_2" arrivalPos="200.00" arrivalSpeed="11.18" duration="40.40" routeLength="422.10" waitingTime="1.40" waitingCount="1" stopTime="0.00" timeLoss="-4804.03" rerouteNo="1" devices="tripinfo_SX_53" vType="car5@SX_53" speedFactor="1.00" vaporized=""/>
    <tripinfo id="SX_73" depart="12.00" departLane="001_001_4_1" departPos="8.10" departSpeed="11.18" departDelay="0.00" arrival="49.60" arrivalLane="001_002_4_1" arrivalPos="200.00" arrivalSpeed="11.18" duration="37.60" routeLength="419.10" waitingTime="0.00" waitingCount="0" stopTime="0.00" timeLoss="0.00" rerouteNo="1" devices="tripinfo_SX_73" vType="car8@SX_73" speedFactor="1.34" vaporized=""/>
    <tripinfo id="RX_75" depart="13.00" departLane="001_001_1_0" departPos="9.10" departSpeed="11.18" departDelay="0.00" arrival="49.70" arrivalLane="001_000_2_0" arrivalPos="200.00" arrivalSpeed="11.18" duration="36.70" routeLength="399.93" waitingTime="0.00" waitingCount="0" stopTime="0.00" timeLoss="-2.21" rerouteNo="1" devices="tripinfo_RX_75" vType="car9@RX_75" speedFactor="1.43" vaporized=""/>
    <tripinfo id="LX_56" depart="9.20" departLane="003_001_2_2" departPos="6.10" departSpeed="11.18" departDelay="0.20" arrival="49.90" arrivalLane="004_001_1_2" arrivalPos="200.00" arrivalSpeed="11.18" duration="40.70" routeLength="417.12" waitingTime="2.00" waitingCount="1" stopTime="0.00" timeLoss="0.43" rerouteNo="1" devices="tripinfo_LX_56" vType="car6@LX_56" speedFactor="0.80" vaporized=""/>
    <tripinfo id="LX_66" depart="11.00" departLane="001_001_1_2" departPos="7.10" departSpeed="11.18" departDelay="0.00" arrival="50.50" arrivalLane="001_002_4_2" arrivalPos="200.00" arrivalSpeed="11.18" duration="39.50" routeLength="416.12" waitingTime="1.00" waitingCount="1" stopTime="0.00" timeLoss="-3953.41" rerouteNo="1" devices="tripinfo_LX_66" vType="car7@LX_66" speedFactor="1.97" vaporized=""/>
    <tripinfo id="RX_88" depart="14.00" departLane="003_001_4_0" departPos="6.10" departSpeed="11.18" departDelay="0.00" arrival="50.50" arrivalLane="004_001_1_0" arrivalPos="200.00" arrivalSpeed="11.18" duration="36.50" routeLength="402.93" waitingTime="0.00" waitingCount="0" stopTime="0.00" timeLoss="-2.26" rerouteNo="1" devices="tripinfo_RX_88" vType="car6@RX_88" speedFactor="1.32" vaporized=""/>
    <tripinfo id="LX_60" depart="10.30" departLane="001_001_4_2" departPos="7.10" departSpeed="11.18" departDelay="0.30" arrival="51.00" arrivalLane="000_001_3_2" arrivalPos="200.00" arrivalSpeed="11.18" duration="40.70" routeLength="416.11" waitingTime="1.50" waitingCount="1" stopTime="0.00" timeLoss="-3.87" rerouteNo="1" devices="tripinfo_LX_60" vType="car7@LX_60" speedFactor="1.22" vaporized=""/>
    <tripinfo id="SX_85" depart="14.00" departLane="002_001_2_1" departPos="8.10" departSpeed="11.18" departDelay="0.00" arrival="51.50" arrivalLane="002_000_2_2" arrivalPos="200.00" arrivalSpeed="11.18" duration="37.50" routeLength="419.10" waitingTime="0.00" waitingCount="0" stopTime="0.00" timeLoss="0.00" rerouteNo="1" devices="tripinfo_SX_85" vType="car8@SX_85" speedFactor="1.31" vaporized=""/>
    <tripinfo id="SX_82" depart="13.00" departLane="003_001_4_1" departPos="9.10" departSpeed="11.18" departDelay="0.00" arrival="51.70" arrivalLane="003_002_4_1" arrivalPos="200.00" arrivalSpeed="11.18" duration="38.70" routeLength="418.10" waitingTime="0.00" waitingCount="0" stopTime="0.00" timeLoss="-0.07" rerouteNo="1" devices="tripinfo_SX_82" vType="car9@SX_82" speedFactor="0.91" vaporized=""/>
    <tripinfo id="SX_84" depart="14.00" departLane="001_001_4_1" departPos="7.10" departSpeed="11.18" departDelay="0.00" arrival="51.70" arrivalLane="001_002_4_1" arrivalPos="200.00" arrivalSpeed="11.18" duration="37.70" routeLength="420.10" waitingTime="0.00" waitingCount="0" stopTime="0.00" timeLoss="-0.00" rerouteNo="1" devices="tripinfo_SX_84" vType="car7@SX_84" speedFactor="1.17" vaporized=""/>
    <tripinfo id="SX_58" depart="9.00" departLane="003_001_4_1" departPos="5.10" departSpeed="11.18" departDelay="0.00" arrival="52.10" arrivalLane="003_002_4_2" arrivalPos="200.00" arrivalSpeed="11.18" duration="43.10" routeLength="422.10" waitingTime="3.30" waitingCount="1" stopTime="0.00" timeLoss="-4724.53" rerouteNo="1" devices="tripinfo_SX_58" vType="car5@SX_58" speedFactor="1.43" vaporized=""/>
    <tripinfo id="SX_91" depart="15.00" departLane="002_001_2_1" departPos="9.10" departSpeed="11.18" departDelay="0.00" arrival="52.40" arrivalLane="002_000_2_1" arrivalPos="200.00" arrivalSpeed="11.18" duration="37.40" routeLength="418.10" waitingTime="0.00" waitingCount="0" stopTime="0.00" timeLoss="0.00" rerouteNo="1" devices="tripinfo_SX_91" vType="car9@SX_91" speedFactor="1.68" vaporized=""/>
    <tripinfo id="SX_70" depart="11.00" departLane="003_001_4_1" departPos="7.10" departSpeed="11.18" departDelay="0.00" arrival="52.80" arrivalLane="003_002_4_2" arrivalPos="200.00" arrivalSpeed="11.18" duration="41.80" routeLength="420.10" waitingTime="3.40" waitingCount="1" stopTime="0.00" timeLoss="4.18" rerouteNo="1" devices="tripinfo_SX_70" vType="car7@SX_70" speedFactor="1.38" vaporized=""/>
    <tripinfo id="SX_92" depart="15.00" departLane="002_001_4_1" departPos="5.10" departSpeed="11.18" departDelay="0.00" arrival="52.80" arrivalLane="002_002_4_2" arrivalPos="200.00" arrivalSpeed="11.18" duration="37.80" routeLength="422.10" waitingTime="0.00" waitingCount="0" stopTime="0.00" timeLoss="0.00" rerouteNo="1" devices="tripinfo_SX_92" vType="car5@SX_92" speedFactor="1.96" vaporized=""/>
    <tripinfo id="RX_101" depart="17.00" departLane="001_001_2_0" departPos="8.10" departSpeed="11.18" departDelay="0.00" arrival="53.00" arrivalLane="000_001_3_0" arrivalPos="200.00" arrivalSpeed="11.18" duration="36.00" routeLength="400.93" waitingTime="0.00" waitingCount="0" stopTime="0.00" timeLoss="-2.21" rerouteNo="1" devices="tripinfo_RX_101" vType="car8@RX_101" speedFactor="1.40" vaporized=""/>
    <tripinfo id="SX_80" depart="13.00" departLane="003_001_2_1" departPos="8.10" departSpeed="11.18" departDelay="0.00" arrival="53.20" arrivalLane="003_000_2_2" arrivalPos="200.00" arrivalSpeed="11.18" duration="40.20" routeLength="419.10" waitingTime="1.50" waitingCount="1" stopTime="0.00" timeLoss="-4262.77" rerouteNo="1" devices="tripinfo_SX_80" vType="car8@SX_80" speedFactor="0.97" vaporized=""/>
    <tripinfo id="RX_106" depart="17.00" departLane="003_001_4_0" departPos="6.10" departSpeed="11.18" departDelay="0.00" arrival="53.20" arrivalLane="004_001_1_0" arrivalPos="200.00" arrivalSpeed="11.18" duration="36.20" routeLength="402.93" waitingTime="0.00" waitingCount="0" stopTime="0.00" timeLoss="-2.12" rerouteNo="1" devices="tripinfo_RX_106" vType="car6@RX_106" speedFactor="1.65" vaporized=""/>
    <tripinfo id="SX_93" depart="15.00" departLane="003_001_2_1" departPos="5.10" departSpeed="11.18" departDelay="0.00" arrival="53.50" arrivalLane="003_000_2_1" arrivalPos="200.00" arrivalSpeed="11.18" duration="38.50" routeLength="422.10" waitingTime="0.00" waitingCount="0" stopTime="0.00" timeLoss="-0.02" rerouteNo="1" devices="tripinfo_SX_93" vType="car5@SX_93" speedFactor="1.37" vaporized=""/>
    <tripinfo id="LX_71" depart="12.40" departLane="001_001_1_2" departPos="8.10" departSpeed="11.18" departDelay="0.40" arrival="53.60" arrivalLane="001_002_4_2" arrivalPos="200.00" arrivalSpeed="11.18" duration="41.20" routeLength="415.12" waitingTime="2.20" waitingCount="2" stopTime="0.00" timeLoss="-4688.96" rerouteNo="1" devices="tripinfo_LX_71" vType="car8@LX_71" speedFactor="1.73" vaporized=""/>
    <tripinfo id="RX_105" depart="17.00" departLane="003_001_3_0" departPos="5.10" departSpeed="11.18" departDelay="0.00" arrival="54.30" arrivalLane="003_002_4_0" arrivalPos="200.00" arrivalSpeed="11.18" duration="37.30" routeLength="403.93" waitingTime="0.00" waitingCount="0" stopTime="0.00" timeLoss="-1.98" rerouteNo="1" devices="tripinfo_RX_105" vType="car5@RX_105" speedFactor="1.82" vaporized=""/>
    <tripinfo id="SX_103" depart="17.00" departLane="002_001_2_1" departPos="5.10" departSpeed="11.18" departDelay="0.00" arrival="54.80" arrivalLane="002_000_2_2" arrivalPos="200.00" arrivalSpeed="11.18" duration="37.80" routeLength="422.10" waitingTime="0.00" waitingCount="0" stopTime="0.00" timeLoss="0.00" rerouteNo="1" devices="tripinfo_SX_103" vType="car5@SX_103" speedFactor="1.05" vaporized=""/>
    <tripinfo id="SX_83" depart="14.00" departLane="001_001_2_1" departPos="9.10" departSpeed="11.18" departDelay="0.00" arrival="55.10" arrivalLane="001_000_2_1" arrivalPos="200.00" arrivalSpeed="11.18" duration="41.10" routeLength="418.10" waitingTime="0.00" waitingCount="0" stopTime="0.00" timeLoss="-0.44" rerouteNo="1" devices="tripinfo_SX_83" vType="car9@SX_83" speedFactor="1.71" vaporized=""/>
    <tripinfo id="SX_77" depart="13.30" departLane="001_001_4_1" departPos="7.10" departSpeed="11.18" departDelay="0.30" arrival="55.30" arrivalLane="001_002_4_2" arrivalPos="200.00" arrivalSpeed="11.18" duration="42.00" routeLength="420.10" waitingTime="2.20" waitingCount="1" stopTime="0.00" timeLoss="-4987.83" rerouteNo="1" devices="tripinfo_SX_77" vType="car7@SX_77" speedFactor="1.99" vaporized=""/>
    <tripinfo id="SX_95" depart="15.00" departLane="003_001_4_1" departPos="8.10" departSpeed="11.18" departDelay="0.00" arrival="55.50" arrivalLane="003_002_4_2" arrivalPos="200.00" arrivalSpeed="11.18" duration="40.50" routeLength="419.10" waitingTime="1.50" waitingCount="2" stopTime="0.00" timeLoss="-4956.97" rerouteNo="1" devices="tripinfo_SX_95" vType="car8@SX_95" speedFactor="1.15" vaporized=""/>
    <tripinfo id="SX_108" depart="18.00" departLane="001_001_4_1" departPos="8.10" departSpeed="11.18" departDelay="0.00" arrival="55.50" arrivalLane="001_002_4_1" arrivalPos="200.00" arrivalSpeed="11.18" duration="37.50" routeLength="419.10" waitingTime="0.00" waitingCount="0" stopTime="0.00" timeLoss="0.00" rerouteNo="1" devices="tripinfo_SX_108" vType="car8@SX_108" speedFactor="1.78" vaporized=""/>
    <tripinfo id="SX_96" depart="16.00" departLane="001_001_2_1" departPos="5.10" departSpeed="11.18" departDelay="0.00" arrival="56.10" arrivalLane="001_000_2_1" arrivalPos="200.00" arrivalSpeed="11.18" duration="40.10" routeLength="422.10" waitingTime="0.00" waitingCount="0" stopTime="0.00" timeLoss="0.22" rerouteNo="1" devices="tripinfo_SX_96" vType="car5@SX_96" speedFactor="1.04" vaporized=""/>
    <tripinfo id="RX_123" depart="20.00" departLane="003_001_4_0" departPos="7.10" departSpeed="11.18" departDelay="0.00" arrival="56.10" arrivalLane="004_001_1_0" arrivalPos="200.00" arrivalSpeed="11.18" duration="36.10" routeLength="401.93" waitingTime="0.00" waitingCount="0" stopTime="0.00" timeLoss="-2.29" rerouteNo="1" devices="tripinfo_RX_123" vType="car7@RX_123" speedFactor="1.30" vaporized=""/>
    <tripinfo id="RRLX_13" depart="2.00" departLane="002_001_2_0" departPos="9.10" departSpeed="11.18" departDelay="0.00" arrival="56.70" arrivalLane="001_002_4_0" arrivalPos="200.00" arrivalSpeed="11.18" duration="54.70" routeLength="608.96" waitingTime="0.00" waitingCount="0" stopTime="0.00" timeLoss="-2.46" rerouteNo="2" devices="tripinfo_RRLX_13" vType="car9@RRLX_13" speedFactor="1.30" vaporized=""/>
    <tripinfo id="LX_89" depart="15.00" departLane="001_001_1_2" departPos="8.10" departSpeed="11.18" departDelay="0.00" arrival="58.10" arrivalLane="001_002_4_2" arrivalPos="200.00" arrivalSpeed="11.18" duration="43.10" routeLength="415.12" waitingTime="3.90" waitingCount="2" stopTime="0.00" timeLoss="-4600.99" rerouteNo="1" devices="tripinfo_LX_89" vType="car8@LX_89" speedFactor="1.08" vaporized=""/>
    <tripinfo id="SX_120" depart="20.00" departLane="002_001_2_1" departPos="7.10" departSpeed="11.18" departDelay="0.00" arrival="58.10" arrivalLane="002_000_2_1" arrivalPos="200.00" arrivalSpeed="11.18" duration="38.10" routeLength="420.10" waitingTime="0.00" waitingCount="0" stopTime="0.00" timeLoss="-0.01" rerouteNo="1" devices="tripinfo_SX_120" vType="car7@SX_120" speedFactor="1.65" vaporized=""/>
    <tripinfo id="RRX_26" depart="4.00" departLane="003_001_2_0" departPos="9.10" departSpeed="11.18" departDelay="0.00" arrival="58.70" arrivalLane="002_002_4_0" arrivalPos="200.00" arrivalSpeed="11.18" duration="54.70" routeLength="608.96" waitingTime="0.00" waitingCount="0" stopTime="0.00" timeLoss="-2.34" rerouteNo="2" devices="tripinfo_RRX_26" vType="car9@RRX_26" speedFactor="1.38" vaporized=""/>
    <tripinfo id="LX_98" depart="16.00" departLane="003_001_2_2" departPos="8.10" departSpeed="11.18" departDelay="0.00" arrival="58.80" arrivalLane="004_001_1_2" arrivalPos="200.00" arrivalSpeed="11.18" duration="42.80" routeLength="415.12" waitingTime="4.00" waitingCount="2" stopTime="0.00" timeLoss="-4840.45" rerouteNo="1" devices="tripinfo_LX_98" vType="car8@LX_98" speedFactor="0.96" vaporized=""/>