<?xml version="1.0" encoding="UTF-8"?>

<!-- generated on 03/25/20 23:11:31 by Eclipse SUMO GUI Version 1.3.1
<configuration xmlns:xsi="http://www.w3.org/2001/XMLSchema-instance" xsi:noNamespaceSchemaLocation="http://sumo.dlr.de/xsd/sumoConfiguration.xsd">

    <input>
        <net-file value="data/lane3.net.xml"/>
        <route-files value="data/icacc+.rou.xml"/>
        <additional-files value="data/icacc+.det.xml"/>
    </input>

    <output>
        <tripinfo-output value="tripinfo.xml"/>
    </output>

    <time>
        <begin value="0"/>
        <step-length value="0.1"/>
    </time>

    <processing>
        <collision.mingap-factor value="0"/>
    </processing>

    <report>
        <verbose value="true"/>
        <no-step-log value="true"/>
    </report>

    <traci_server>
        <remote-port value="6547"/>
    </traci_server>

    <gui_only>
        <start value="true"/>
        <tracker-interval value="0.1"/>
    </gui_only>

</configuration>
-->

<tripinfos xmlns:xsi="http://www.w3.org/2001/XMLSchema-instance" xsi:noNamespaceSchemaLocation="http://sumo.dlr.de/xsd/tripinfo_file.xsd">
    <tripinfo id="R_1" depart="0.00" departLane="2_1" departPos="7.10" departSpeed="0.00" departDelay="0.00" arrival="36.80" arrivalLane="-1_2" arrivalPos="200.00" arrivalSpeed="11.18" duration="36.80" routeLength="408.39" waitingTime="0.00" waitingCount="0" stopTime="0.00" timeLoss="-2.56" rerouteNo="0" devices="tripinfo_R_1" vType="car7@R_1" speedFactor="0.94" vaporized=""/>
    <tripinfo id="S_0" depart="0.00" departLane="1_2" departPos="8.10" departSpeed="0.00" departDelay="0.00" arrival="37.10" arrivalLane="-3_2" arrivalPos="200.00" arrivalSpeed="11.18" duration="37.10" routeLength="414.30" waitingTime="0.00" waitingCount="0" stopTime="0.00" timeLoss="0.01" rerouteNo="0" devices="tripinfo_S_0" vType="car8@S_0" speedFactor="1.06" vaporized=""/>
    <tripinfo id="L_2" depart="1.00" departLane="1_0" departPos="9.10" departSpeed="0.00" departDelay="0.00" arrival="38.70" arrivalLane="-2_1" arrivalPos="200.00" arrivalSpeed="11.18" duration="37.70" routeLength="415.34" waitingTime="0.00" waitingCount="0" stopTime="0.00" timeLoss="-2.19" rerouteNo="0" devices="tripinfo_L_2" vType="car9@L_2" speedFactor="1.01" vaporized=""/>
    <tripinfo id="L_3" depart="1.00" departLane="2_2" departPos="5.10" departSpeed="0.00" departDelay="0.00" arrival="40.00" arrivalLane="-3_0" arrivalPos="200.00" arrivalSpeed="11.18" duration="39.00" routeLength="424.16" waitingTime="0.00" waitingCount="0" stopTime="0.00" timeLoss="-3.25" rerouteNo="0" devices="tripinfo_L_3" vType="car5@L_3" speedFactor="1.08" vaporized=""/>
    <tripinfo id="R_11" depart="5.00" departLane="2_2" departPos="9.10" departSpeed="0.00" departDelay="1.00" arrival="41.20" arrivalLane="-1_1" arrivalPos="200.00" arrivalSpeed="11.18" duration="36.20" routeLength="401.22" waitingTime="0.10" waitingCount="1" stopTime="0.00" timeLoss="-2.47" rerouteNo="0" devices="tripinfo_R_11" vType="car9@R_11" speedFactor="1.03" vaporized=""/>
    <tripinfo id="S_10" depart="3.00" departLane="4_2" departPos="7.10" departSpeed="0.00" departDelay="0.00" arrival="42.10" arrivalLane="-2_1" arrivalPos="200.00" arrivalSpeed="11.18" duration="39.10" routeLength="415.30" waitingTime="0.90" waitingCount="1" stopTime="0.00" timeLoss="-4322.16" rerouteNo="0" devices="tripinfo_S_10" vType="car7@S_10" speedFactor="1.09" vaporized=""/>
    <tripinfo id="L_4" depart="1.00" departLane="3_2" departPos="6.10" departSpeed="0.00" departDelay="0.00" arrival="42.70" arrivalLane="-4_0" arrivalPos="200.00" arrivalSpeed="11.18" duration="41.70" routeLength="423.16" waitingTime="2.60" waitingCount="1" stopTime="0.00" timeLoss="-4297.70" rerouteNo="0" devices="tripinfo_L_4" vType="car6@L_4" speedFactor="1.03" vaporized=""/>
    <tripinfo id="L_5" depart="2.00" departLane="2_0" departPos="7.10" departSpeed="0.00" departDelay="0.00" arrival="43.30" arrivalLane="-3_2" arrivalPos="200.00" arrivalSpeed="11.18" duration="41.30" routeLength="412.45" waitingTime="3.20" waitingCount="1" stopTime="0.00" timeLoss="-4324.84" rerouteNo="0" devices="tripinfo_L_5" vType="car7@L_5" speedFactor="0.83" vaporized=""/>
    <tripinfo id="L_6" depart="2.00" departLane="4_0" departPos="7.10" departSpeed="0.00" departDelay="0.00" arrival="43.30" arrivalLane="-1_2" arrivalPos="200.00" arrivalSpeed="11.18" duration="41.30" routeLength="412.45" waitingTime="3.30" waitingCount="1" stopTime="0.00" timeLoss="-4407.77" rerouteNo="0" devices="tripinfo_L_6" vType="car7@L_6" speedFactor="1.05" vaporized=""/>
    <tripinfo id="R_13" depart="5.10" departLane="2_2" departPos="8.10" departSpeed="0.00" departDelay="0.10" arrival="43.80" arrivalLane="-1_0" arrivalPos="200.00" arrivalSpeed="11.18" duration="38.70" routeLength="397.06" waitingTime="0.10" waitingCount="1" stopTime="0.00" timeLoss="0.57" rerouteNo="0" devices="tripinfo_R_13" vType="car8@R_13" speedFactor="1.12" vaporized=""/>
    <tripinfo id="S_7" depart="3.00" departLane="1_0" departPos="7.10" departSpeed="0.00" departDelay="0.00" arrival="44.90" arrivalLane="-3_1" arrivalPos="200.00" arrivalSpeed="11.18" duration="41.90" routeLength="415.30" waitingTime="3.80" waitingCount="1" stopTime="0.00" timeLoss="-4405.60" rerouteNo="0" devices="tripinfo_S_7" vType="car7@S_7" speedFactor="0.89" vaporized=""/>
    <tripinfo id="S_9" depart="3.00" departLane="3_1" departPos="6.10" departSpeed="0.00" departDelay="0.00" arrival="45.40" arrivalLane="-1_2" arrivalPos="200.00" arrivalSpeed="11.18" duration="42.40" routeLength="416.30" waitingTime="4.20" waitingCount="1" stopTime="0.00" timeLoss="-4295.57" rerouteNo="0" devices="tripinfo_S_9" vType="car6@S_9" speedFactor="0.86" vaporized=""/>
    <tripinfo id="S_8" depart="3.00" departLane="2_0" departPos="6.10" departSpeed="0.00" departDelay="0.00" arrival="46.70" arrivalLane="-4_2" arrivalPos="200.00" arrivalSpeed="11.18" duration="43.70" routeLength="416.30" waitingTime="2.20" waitingCount="2" stopTime="0.00" timeLoss="-4702.45" rerouteNo="0" devices="tripinfo_S_8" vType="car6@S_8" speedFactor="0.94" vaporized=""/>
    <tripinfo id="R_15" depart="6.00" departLane="3_0" departPos="8.10" departSpeed="0.00" departDelay="0.00" arrival="46.70" arrivalLane="-2_0" arrivalPos="200.00" arrivalSpeed="11.18" duration="40.70" routeLength="397.06" waitingTime="1.60" waitingCount="2" stopTime="0.00" timeLoss="2.38" rerouteNo="0" devices="tripinfo_R_15" vType="car8@R_15" speedFactor="0.93" vaporized=""/>
    <tripinfo id="R_24" depart="12.00" departLane="4_0" departPos="9.10" departSpeed="0.00" departDelay="0.00" arrival="47.60" arrivalLane="-3_0" arrivalPos="200.00" arrivalSpeed="11.18" duration="35.60" routeLength="396.06" waitingTime="0.00" waitingCount="0" stopTime="0.00" timeLoss="-2.94" rerouteNo="0" devices="tripinfo_R_24" vType="car9@R_24" speedFactor="0.83" vaporized=""/>
    <tripinfo id="L_14" depart="5.00" departLane="3_1" departPos="9.10" departSpeed="0.00" departDelay="0.00" arrival="47.90" arrivalLane="-4_0" arrivalPos="200.00" arrivalSpeed="11.18" duration="42.90" routeLength="420.16" waitingTime="3.30" waitingCount="1" stopTime="0.00" timeLoss="-4890.70" rerouteNo="0" devices="tripinfo_L_14" vType="car9@L_14" speedFactor="0.99" vaporized=""/>
    <tripinfo id="R_21" depart="10.00" departLane="2_1" departPos="9.10" departSpeed="0.00" departDelay="0.00" arrival="47.90" arrivalLane="-1_0" arrivalPos="200.00" arrivalSpeed="11.18" duration="37.90" routeLength="396.06" waitingTime="0.00" waitingCount="0" stopTime="0.00" timeLoss="-0.27" rerouteNo="0" devices="tripinfo_R_21" vType="car9@R_21" speedFactor="1.01" vaporized=""/>
    <tripinfo id="S_16" depart="6.00" departLane="4_0" departPos="7.10" departSpeed="0.00" departDelay="0.00" arrival="48.00" arrivalLane="-2_2" arrivalPos="200.00" arrivalSpeed="11.18" duration="42.00" routeLength="415.30" waitingTime="2.70" waitingCount="1" stopTime="0.00" timeLoss="-4797.78" rerouteNo="0" devices="tripinfo_S_16" vType="car7@S_16" speedFactor="0.88" vaporized=""/>
    <tripinfo id="L_12" depart="4.00" departLane="3_0" departPos="8.10" departSpeed="0.00" departDelay="0.00" arrival="48.30" arrivalLane="-4_2" arrivalPos="200.00" arrivalSpeed="11.18" duration="44.30" routeLength="411.45" waitingTime="3.00" waitingCount="2" stopTime="0.00" timeLoss="-4856.29" rerouteNo="0" devices="tripinfo_L_12" vType="car8@L_12" speedFactor="1.05" vaporized=""/>
    <tripinfo id="S_17" depart="7.00" departLane="3_1" departPos="7.10" departSpeed="0.00" departDelay="0.00" arrival="49.40" arrivalLane="-1_2" arrivalPos="200.00" arrivalSpeed="11.18" duration="42.40" routeLength="415.30" waitingTime="1.90" waitingCount="2" stopTime="0.00" timeLoss="5.22" rerouteNo="0" devices="tripinfo_S_17" vType="car7@S_17" speedFactor="0.94" vaporized=""/>
    <tripinfo id="R_20" depart="9.00" departLane="1_0" departPos="7.10" departSpeed="0.00" departDelay="0.00" arrival="49.50" arrivalLane="-4_1" arrivalPos="200.00" arrivalSpeed="11.18" duration="40.50" routeLength="403.22" waitingTime="3.10" waitingCount="1" stopTime="0.00" timeLoss="-4795.35" rerouteNo="0" devices="tripinfo_R_20" vType="car7@R_20" speedFactor="1.02" vaporized=""/>
    <tripinfo id="L_18" depart="8.00" departLane="2_1" departPos="5.10" departSpeed="0.00" departDelay="0.00" arrival="49.80" arrivalLane="-3_2" arrivalPos="200.00" arrivalSpeed="11.18" duration="41.80" routeLength="414.45" waitingTime="1.20" waitingCount="1" stopTime="0.00" timeLoss="-4634.00" rerouteNo="0" devices="tripinfo_L_18" vType="car5@L_18" speedFactor="0.94" vaporized=""/>
    <tripinfo id="R_23" depart="11.00" departLane="2_2" departPos="9.10" departSpeed="0.00" departDelay="0.00" arrival="50.40" arrivalLane="-1_0" arrivalPos="200.00" arrivalSpeed="11.18" duration="39.40" routeLength="396.06" waitingTime="0.30" waitingCount="3" stopTime="0.00" timeLoss="1.13" rerouteNo="0" devices="tripinfo_R_23" vType="car9@R_23" speedFactor="0.89" vaporized=""/>
    <tripinfo id="L_22" depart="10.00" departLane="4_0" departPos="7.10" departSpeed="0.00" departDelay="0.00" arrival="50.60" arrivalLane="-1_2" arrivalPos="200.00" arrivalSpeed="11.18" duration="40.60" routeLength="412.45" waitingTime="1.20" waitingCount="2" stopTime="0.00" timeLoss="-4717.66" rerouteNo="0" devices="tripinfo_L_22" vType="car7@L_22" speedFactor="0.98" vaporized=""/>
    <tripinfo id="L_19" depart="8.30" departLane="3_2" departPos="9.10" departSpeed="0.00" departDelay="0.30" arrival="51.80" arrivalLane="-4_2" arrivalPos="200.00" arrivalSpeed="11.18" duration="43.50" routeLength="410.45" waitingTime="1.70" waitingCount="3" stopTime="0.00" timeLoss="-4428.27" rerouteNo="0" devices="tripinfo_L_19" vType="car9@L_19" speedFactor="1.16" vaporized=""/>
    <tripinfo id="R_25" depart="13.00" departLane="2_1" departPos="7.10" departSpeed="0.00" departDelay="0.00" arrival="52.30" arrivalLane="-1_1" arrivalPos="200.00" arrivalSpeed="11.18" duration="39.30" routeLength="403.22" waitingTime="0.00" waitingCount="0" stopTime="0.00" timeLoss="-3.59" rerouteNo="0" devices="tripinfo_R_25" vType="car7@R_25" speedFactor="0.87" vaporized=""/>
    <tripinfo id="L_26" depart="13.00" departLane="3_1" departPos="7.10" departSpeed="0.00" departDelay="0.00" arrival="53.00" arrivalLane="-4_2" arrivalPos="200.00" arrivalSpeed="11.18" duration="40.00" routeLength="412.45" waitingTime="0.50" waitingCount="1" stopTime="0.00" timeLoss="0.36" rerouteNo="0" devices="tripinfo_L_26" vType="car7@L_26" speedFactor="0.92" vaporized=""/>
    <tripinfo id="R_29" depart="16.10" departLane="3_2" departPos="8.10" departSpeed="0.00" departDelay="1.10" arrival="53.50" arrivalLane="-2_0" arrivalPos="200.00" arrivalSpeed="11.18" duration="37.40" routeLength="397.06" waitingTime="0.10" waitingCount="1" stopTime="0.00" timeLoss="-0.94" rerouteNo="0" devices="tripinfo_R_29" vType="car8@R_29" speedFactor="0.93" vaporized=""/>
    <tripinfo id="L_28" depart="14.00" departLane="3_1" departPos="9.10" departSpeed="0.00" departDelay="0.00" arrival="54.00" arrivalLane="-4_2" arrivalPos="200.00" arrivalSpeed="11.18" duration="40.00" routeLength="410.45" waitingTime="0.00" waitingCount="0" stopTime="0.00" timeLoss="0.86" rerouteNo="0" devices="tripinfo_L_28" vType="car9@L_28" speedFactor="1.13" vaporized=""/>
    <tripinfo id="L_27" depart="14.30" departLane="2_0" departPos="6.10" departSpeed="0.00" departDelay="0.30" arrival="54.60" arrivalLane="-3_2" arrivalPos="200.00" arrivalSpeed="11.18" duration="40.30" routeLength="413.45" waitingTime="0.60" waitingCount="1" stopTime="0.00" timeLoss="0.63" rerouteNo="0" devices="tripinfo_L_27" vType="car6@L_27" speedFactor="0.95" vaporized=""/>
    <tripinfo id="R_32" depart="16.00" departLane="3_0" departPos="5.10" departSpeed="0.00" departDelay="0.00" arrival="55.30" arrivalLane="-2_1" arrivalPos="200.00" arrivalSpeed="11.18" duration="39.30" routeLength="405.22" waitingTime="0.70" waitingCount="2" stopTime="0.00" timeLoss="-0.33" rerouteNo="0" devices="tripinfo_R_32" vType="car5@R_32" speedFactor="1.01" vaporized=""/>
    <tripinfo id="R_39" depart="19.00" departLane="1_2" departPos="8.10" departSpeed="0.00" departDelay="0.00" arrival="56.30" arrivalLane="-4_0" arrivalPos="200.00" arrivalSpeed="11.18" duration="37.30" routeLength="397.06" waitingTime="0.40" waitingCount="2" stopTime="0.00" timeLoss="-1.07" rerouteNo="0" devices="tripinfo_R_39" vType="car8@R_39" speedFactor="0.90" vaporized=""/>
    <tripinfo id="L_30" depart="15.00" departLane="4_0" departPos="5.10" departSpeed="0.00" departDelay="0.00" arrival="56.40" arrivalLane="-1_2" arrivalPos="200.00" arrivalSpeed="11.18" duration="41.40" routeLength="414.45" waitingTime="0.90" waitingCount="1" stopTime="0.00" timeLoss="-4379.68" rerouteNo="0" devices="tripinfo_L_30" vType="car5@L_30" speedFactor="1.18" vaporized=""/>
    <tripinfo id="S_33" depart="17.00" departLane="1_0" departPos="8.10" departSpeed="0.00" departDelay="0.00" arrival="56.70" arrivalLane="-3_0" arrivalPos="200.00" arrivalSpeed="11.18" duration="39.70" routeLength="414.30" waitingTime="1.60" waitingCount="1" stopTime="0.00" timeLoss="-4526.47" rerouteNo="0" devices="tripinfo_S_33" vType="car8@S_33" speedFactor="1.17" vaporized=""/>
    <tripinfo id="S_31" depart="16.00" departLane="2_0" departPos="8.10" departSpeed="0.00" departDelay="0.00" arrival="57.80" arrivalLane="-4_1" arrivalPos="200.00" arrivalSpeed="11.18" duration="41.80" routeLength="414.30" waitingTime="1.40" waitingCount="1" stopTime="0.00" timeLoss="-4666.52" rerouteNo="0" devices="tripinfo_S_31" vType="car8@S_31" speedFactor="1.15" vaporized=""/>
    <tripinfo id="R_34" depart="17.00" departLane="2_0" departPos="7.10" departSpeed="0.00" departDelay="0.00" arrival="57.90" arrivalLane="-1_1" arrivalPos="200.00" arrivalSpeed="11.18" duration="40.90" routeLength="403.22" waitingTime="0.30" waitingCount="2" stopTime="0.00" timeLoss="2.07" rerouteNo="0" devices="tripinfo_R_34" vType="car7@R_34" speedFactor="0.99" vaporized=""/>
    <tripinfo id="R_36" depart="17.00" departLane="4_0" departPos="9.10" departSpeed="0.00" departDelay="0.00" arrival="58.20" arrivalLane="-3_2" arrivalPos="200.00" arrivalSpeed="11.18" duration="41.20" routeLength="406.39" waitingTime="0.40" waitingCount="1" stopTime="0.00" timeLoss="-4871.39" rerouteNo="0" devices="tripinfo_R_36" vType="car9@R_36" speedFactor="0.97" vaporized=""/>
    <tripinfo id="L_35" depart="18.90" departLane="3_1" departPos="7.10" departSpeed="0.00" departDelay="1.90" arrival="58.80" arrivalLane="-4_2" arrivalPos="200.00" arrivalSpeed="11.18" duration="39.90" routeLength="412.45" waitingTime="0.30" waitingCount="2" stopTime="0.00" timeLoss="0.49" rerouteNo="0" devices="tripinfo_L_35" vType="car7@L_35" speedFactor="1.02" vaporized=""/>
    <tripinfo id="R_41" depart="20.00" departLane="1_1" departPos="6.10" departSpeed="0.00" departDelay="0.00" arrival="58.90" arrivalLane="-4_1" arrivalPos="200.00" arrivalSpeed="11.18" duration="38.90" routeLength="404.22" waitingTime="0.00" waitingCount="0" stopTime="0.00" timeLoss="-0.40" rerouteNo="0" devices="tripinfo_R_41" vType="car6@R_41" speedFactor="0.96" vaporized=""/>
    <tripinfo id="R_37" depart="20.50" departLane="2_1" departPos="9.10" departSpeed="0.00" departDelay="2.50" arrival="59.00" arrivalLane="-1_1" arrivalPos="200.00" arrivalSpeed="11.18" duration="38.50" routeLength="401.22" waitingTime="0.10" waitingCount="1" stopTime="0.00" timeLoss="0.13" rerouteNo="0" devices="tripinfo_R_37" vType="car9@R_37" speedFactor="1.18" vaporized=""/>
    <tripinfo id="L_44" depart="21.00" departLane="1_2" departPos="6.10" departSpeed="0.00" departDelay="0.00" arrival="59.10" arrivalLane="-2_2" arrivalPos="200.00" arrivalSpeed="11.18" duration="38.10" routeLength="413.45" waitingTime="0.00" waitingCount="0" stopTime="0.00" timeLoss="-105.29" rerouteNo="0" devices="tripinfo_L_44" vType="car6@L_44" speedFactor="1.04" vaporized=""/>
    <tripinfo id="R_43" depart="20.00" departLane="4_2" departPos="9.10" departSpeed="0.00" departDelay="0.00" arrival="59.60" arrivalLane="-3_1" arrivalPos="200.00" arrivalSpeed="11.18" duration="39.60" routeLength="401.22" waitingTime="1.00" waitingCount="1" stopTime="0.00" timeLoss="-4917.82" rerouteNo="0" devices="tripinfo_R_43" vType="car9@R_43" speedFactor="1.04" vaporized=""/>
    <tripinfo id="L_38" depart="18.00" departLane="3_0" departPos="5.10" departSpeed="0.00" departDelay="0.00" arrival="61.10" arrivalLane="-4_2" arrivalPos="200.00" arrivalSpeed="11.18" duration="43.10" routeLength="414.45" waitingTime="1.00" waitingCount="4" stopTime="0.00" timeLoss="3.64" rerouteNo="0" devices="tripinfo_L_38" vType="car5@L_38" speedFactor="1.10" vaporized=""/>
    <tripinfo id="R_46" depart="22.00" departLane="2_2" departPos="9.10" departSpeed="0.00" departDelay="0.00" arrival="61.40" arrivalLane="-1_1" arrivalPos="200.00" arrivalSpeed="11.18" duration="39.40" routeLength="401.22" waitingTime="0.10" waitingCount="1" stopTime="0.00" timeLoss="0.80" rerouteNo="0" devices="tripinfo_R_46" vType="car9@R_46" speedFactor="1.00" vaporized=""/>
    <tripinfo id="S_45" depart="21.00" departLane="4_0" departPos="5.10" departSpeed="0.00" departDelay="0.00" arrival="61.90" arrivalLane="-2_1" arrivalPos="200.00" arrivalSpeed="11.18" duration="40.90" routeLength="417.30" waitingTime="0.10" waitingCount="1" stopTime="0.00" timeLoss="3.37" rerouteNo="0" devices="tripinfo_S_45" vType="car5@S_45" speedFactor="1.09" vaporized=""/>
    <tripinfo id="L_47" depart="22.00" departLane="4_2" departPos="9.10" departSpeed="0.00" departDelay="0.00" arrival="63.10" arrivalLane="-1_2" arrivalPos="200.00" arrivalSpeed="11.18" duration="41.10" routeLength="410.45" waitingTime="0.90" waitingCount="1" stopTime="0.00" timeLoss="-4754.33" rerouteNo="0" devices="tripinfo_L_47" vType="car9@L_47" speedFactor="0.90" vaporized=""/>
    <tripinfo id="L_48" depart="23.00" departLane="3_1" departPos="6.10" departSpeed="0.00" departDelay="0.00" arrival="63.40" arrivalLane="-4_2" arrivalPos="200.00" arrivalSpeed="11.18" duration="40.40" routeLength="413.45" waitingTime="0.00" waitingCount="0" stopTime="0.00" timeLoss="-5.94" rerouteNo="0" devices="tripinfo_L_48" vType="car6@L_48" speedFactor="0.88" vaporized=""/>
    <tripinfo id="R_51" depart="25.00" departLane="2_0" departPos="6.10" departSpeed="0.00" departDelay="0.00" arrival="63.40" arrivalLane="-1_1" arrivalPos="200.00" arrivalSpeed="11.18" duration="38.40" routeLength="404.22" waitingTime="0.00" waitingCount="0" stopTime="0.00" timeLoss="-0.29" rerouteNo="0" devices="tripinfo_R_51" vType="car6@R_51" speedFactor="1.17" vaporized=""/>
    <tripinfo id="L_42" depart="20.90" departLane="3_1" departPos="5.10" departSpeed="0.00" departDelay="0.90" arrival="64.60" arrivalLane="-4_2" arrivalPos="200.00" arrivalSpeed="11.18" duration="43.70" routeLength="414.45" waitingTime="2.50" waitingCount="3" stopTime="0.00" timeLoss="4.20" rerouteNo="0" devices="tripinfo_L_42" vType="car5@L_42" speedFactor="1.09" vaporized=""/>
    <tripinfo id="L_49" depart="24.00" departLane="1_0" departPos="5.10" departSpeed="0.00" departDelay="0.00" arrival="65.50" arrivalLane="-2_2" arrivalPos="200.00" arrivalSpeed="11.18" duration="41.50" routeLength="414.45" waitingTime="1.00" waitingCount="1" stopTime="0.00" timeLoss="-4380.18" rerouteNo="0" devices="tripinfo_L_49" vType="car5@L_49" speedFactor="0.85" vaporized=""/>
    <tripinfo id="L_52" depart="26.00" departLane="1_0" departPos="8.10" departSpeed="0.00" departDelay="0.00" arrival="66.40" arrivalLane="-2_2" arrivalPos="200.00" arrivalSpeed="11.18" duration="40.40" routeLength="411.45" waitingTime="0.00" waitingCount="0" stopTime="0.00" timeLoss="1.06" rerouteNo="0" devices="tripinfo_L_52" vType="car8@L_52" speedFactor="1.02" vaporized=""/>
    <tripinfo id="L_53" depart="26.00" departLane="4_2" departPos="8.10" departSpeed="0.00" departDelay="0.00" arrival="66.60" arrivalLane="-1_2" arrivalPos="200.00" arrivalSpeed="11.18" duration="40.60" routeLength="411.45" waitingTime="0.30" waitingCount="1" stopTime="0.00" timeLoss="-4668.64" rerouteNo="0" devices="tripinfo_L_53" vType="car8@L_53" speedFactor="1.10" vaporized=""/>
    <tripinfo id="L_55" depart="27.00" departLane="3_0" departPos="9.10" departSpeed="0.00" departDelay="0.00" arrival="66.80" arrivalLane="-4_2" arrivalPos="200.00" arrivalSpeed="11.18" duration="39.80" routeLength="410.45" waitingTime="0.00" waitingCount="0" stopTime="0.00" timeLoss="-0.51" rerouteNo="0" devices="tripinfo_L_55" vType="car9@L_55" speedFactor="1.00" vaporized=""/>
    <tripinfo id="R_59" depart="29.00" departLane="4_0" departPos="9.10" departSpeed="0.00" departDelay="0.00" arrival="66.90" arrivalLane="-3_0" arrivalPos="200.00" arrivalSpeed="11.18" duration="37.90" routeLength="396.06" waitingTime="0.00" waitingCount="0" stopTime="0.00" timeLoss="-0.31" rerouteNo="0" devices="tripinfo_R_59" vType="car9@R_59" speedFactor="0.97" vaporized=""/>
    <tripinfo id="L_57" depart="28.00" departLane="2_1" departPos="6.10" departSpeed="0.00" departDelay="0.00" arrival="68.60" arrivalLane="-3_2" arrivalPos="200.00" arrivalSpeed="11.18" duration="40.60" routeLength="413.45" waitingTime="0.20" waitingCount="1" stopTime="0.00" timeLoss="-4455.98" rerouteNo="0" devices="tripinfo_L_57" vType="car6@L_57" speedFactor="1.14" vaporized=""/>
    <tripinfo id="S_56" depart="28.10" departLane="4_2" departPos="8.10" departSpeed="0.00" departDelay="1.10" arrival="69.20" arrivalLane="-2_2" arrivalPos="200.00" arrivalSpeed="11.18" duration="41.10" routeLength="414.30" waitingTime="0.60" waitingCount="2" stopTime="0.00" timeLoss="-4542.08" rerouteNo="0" devices="tripinfo_S_56" vType="car8@S_56" speedFactor="0.90" vaporized=""/>
    <tripinfo id="R_62" depart="31.00" departLane="1_0" departPos="9.10" departSpeed="0.00" departDelay="0.00" arrival="69.40" arrivalLane="-4_1" arrivalPos="200.00" arrivalSpeed="11.18" duration="38.40" routeLength="401.22" waitingTime="0.00" waitingCount="0" stopTime="0.00" timeLoss="-0.23" rerouteNo="0" devices="tripinfo_R_62" vType="car9@R_62" speedFactor="1.02" vaporized=""/>
    <tripinfo id="S_54" depart="28.10" departLane="1_2" departPos="6.10" departSpeed="0.00" departDelay="1.10" arrival="70.10" arrivalLane="-3_2" arrivalPos="200.00" arrivalSpeed="11.18" duration="42.00" routeLength="416.30" waitingTime="1.70" waitingCount="2" stopTime="0.00" timeLoss="-3909.82" rerouteNo="0" devices="tripinfo_S_54" vType="car6@S_54" speedFactor="1.00" vaporized=""/>
    <tripinfo id="S_58" depart="29.00" departLane="3_1" departPos="5.10" departSpeed="0.00" departDelay="0.00" arrival="70.70" arrivalLane="-1_2" arrivalPos="200.00" arrivalSpeed="11.18" duration="41.70" routeLength="417.30" waitingTime="0.30" waitingCount="2" stopTime="0.00" timeLoss="-4828.21" rerouteNo="0" devices="tripinfo_S_58" vType="car5@S_58" speedFactor="1.02" vaporized=""/>
    <tripinfo id="S_61" depart="30.00" departLane="4_1" departPos="6.10" departSpeed="0.00" departDelay="0.00" arrival="71.30" arrivalLane="-2_2" arrivalPos="200.00" arrivalSpeed="11.18" duration="41.30" routeLength="416.30" waitingTime="0.10" waitingCount="1" stopTime="0.00" timeLoss="-4744.00" rerouteNo="0" devices="tripinfo_S_61" vType="car6@S_61" speedFactor="1.12" vaporized=""/>
    <tripinfo id="S_63" depart="31.10" departLane="4_0" departPos="8.10" departSpeed="0.00" departDelay="0.10" arrival="72.20" arrivalLane="-2_2" arrivalPos="200.00" arrivalSpeed="11.18" duration="41.10" routeLength="414.30" waitingTime="0.30" waitingCount="3" stopTime="0.00" timeLoss="3.96" rerouteNo="0" devices="tripinfo_S_63" vType="car8@S_63" speedFactor="0.99" vaporized=""/>
    <tripinfo id="L_50" depart="24.80" departLane="3_1" departPos="6.10" departSpeed="0.00" departDelay="0.80" arrival="72.50" arrivalLane="-4_2" arrivalPos="200.00" arrivalSpeed="11.18" duration="47.70" routeLength="413.45" waitingTime="4.60" waitingCount="3" stopTime="0.00" timeLoss="4.95" rerouteNo="0" devices="tripinfo_L_50" vType="car6@L_50" speedFactor="0.85" vaporized=""/>
    <tripinfo id="S_67" depart="33.00" departLane="1_0" departPos="6.10" departSpeed="0.00" departDelay="0.00" arrival="72.90" arrivalLane="-3_2" arrivalPos="200.00" arrivalSpeed="11.18" duration="39.90" routeLength="416.30" waitingTime="0.00" waitingCount="0" stopTime="0.00" timeLoss="2.09" rerouteNo="0" devices="tripinfo_S_67" vType="car6@S_67" speedFactor="0.91" vaporized=""/>
    <tripinfo id="L_64" depart="32.00" departLane="2_2" departPos="5.10" departSpeed="0.00" departDelay="0.00" arrival="74.00" arrivalLane="-3_2" arrivalPos="200.00" arrivalSpeed="11.18" duration="42.00" routeLength="414.45" waitingTime="1.20" waitingCount="1" stopTime="0.00" timeLoss="-4879.68" rerouteNo="0" devices="tripinfo_L_64" vType="car5@L_64" speedFactor="0.94" vaporized=""/>
    <tripinfo id="R_73" depart="36.00" departLane="2_0" departPos="8.10" departSpeed="0.00" departDelay="0.00" arrival="74.50" arrivalLane="-1_1" arrivalPos="200.00" arrivalSpeed="11.18" duration="38.50" routeLength="402.22" waitingTime="0.00" waitingCount="0" stopTime="0.00" timeLoss="-0.21" rerouteNo="0" devices="tripinfo_R_73" vType="car8@R_73" speedFactor="1.06" vaporized=""/>
    <tripinfo id="L_71" depart="34.60" departLane="4_2" departPos="6.10" departSpeed="0.00" departDelay="0.60" arrival="74.60" arrivalLane="-1_2" arrivalPos="200.00" arrivalSpeed="11.18" duration="40.00" routeLength="413.45" waitingTime="0.00" waitingCount="0" stopTime="0.00" timeLoss="-1.01" rerouteNo="0" devices="tripinfo_L_71" vType="car6@L_71" speedFactor="0.97" vaporized=""/>
    <tripinfo id="R_80" depart="40.00" departLane="1_0" departPos="6.10" departSpeed="0.00" departDelay="0.00" arrival="75.80" arrivalLane="-4_0" arrivalPos="200.00" arrivalSpeed="11.18" duration="35.80" routeLength="399.06" waitingTime="0.00" waitingCount="0" stopTime="0.00" timeLoss="-2.56" rerouteNo="0" devices="tripinfo_R_80" vType="car6@R_80" speedFactor="1.03" vaporized=""/>
    <tripinfo id="L_60" depart="32.00" departLane="3_1" departPos="8.10" departSpeed="0.00" departDelay="2.00" arrival="76.00" arrivalLane="-4_2" arrivalPos="200.00" arrivalSpeed="11.18" duration="44.00" routeLength="411.45" waitingTime="2.60" waitingCount="3" stopTime="0.00" timeLoss="-4002.34" rerouteNo="0" devices="tripinfo_L_60" vType="car8@L_60" speedFactor="1.08" vaporized=""/>
    <tripinfo id="R_76" depart="38.10" departLane="2_1" departPos="8.10" departSpeed="0.00" departDelay="0.10" arrival="76.20" arrivalLane="-1_0" arrivalPos="200.00" arrivalSpeed="11.18" duration="38.10" routeLength="397.06" waitingTime="0.10" waitingCount="1" stopTime="0.00" timeLoss="-0.24" rerouteNo="0" devices="tripinfo_R_76" vType="car8@R_76" speedFactor="1.03" vaporized=""/>
    <tripinfo id="S_66" depart="32.30" departLane="4_2" departPos="7.10" departSpeed="0.00" departDelay="0.30" arrival="76.70" arrivalLane="-2_0" arrivalPos="200.00" arrivalSpeed="11.18" duration="44.40" routeLength="415.30" waitingTime="3.90" waitingCount="2" stopTime="0.00" timeLoss="-4922.87" rerouteNo="0" devices="tripinfo_S_66" vType="car7@S_66" speedFactor="0.91" vaporized=""/>
    <tripinfo id="L_72" depart="35.00" departLane="2_0" departPos="5.10" departSpeed="0.00" departDelay="0.00" arrival="76.90" arrivalLane="-3_2" arrivalPos="200.00" arrivalSpeed="11.18" duration="41.90" routeLength="414.45" waitingTime="1.10" waitingCount="1" stopTime="0.00" timeLoss="-4969.41" rerouteNo="0" devices="tripinfo_L_72" vType="car5@L_72" speedFactor="0.94" vaporized=""/>
    <tripinfo id="R_78" depart="39.00" departLane="1_2" departPos="9.10" departSpeed="0.00" departDelay="0.00" arrival="77.40" arrivalLane="-4_1" arrivalPos="200.00" arrivalSpeed="11.18" duration="38.40" routeLength="401.22" waitingTime="0.00" waitingCount="0" stopTime="0.00" timeLoss="-0.24" rerouteNo="0" devices="tripinfo_R_78" vType="car9@R_78" speedFactor="1.01" vaporized=""/>
    <tripinfo id="R_40" depart="32.90" departLane="3_2" departPos="8.10" departSpeed="0.00" departDelay="13.90" arrival="77.90" arrivalLane="-2_1" arrivalPos="200.00" arrivalSpeed="11.18" duration="45.00" routeLength="402.22" waitingTime="5.90" waitingCount="2" stopTime="0.00" timeLoss="-4578.35" rerouteNo="0" devices="tripinfo_R_40" vType="car8@R_40" speedFactor="1.03" vaporized=""/>
    <tripinfo id="R_79" depart="39.00" departLane="2_1" departPos="7.10" departSpeed="0.00" departDelay="0.00" arrival="77.90" arrivalLane="-1_1" arrivalPos="200.00" arrivalSpeed="11.18" duration="38.90" routeLength="403.22" waitingTime="0.00" waitingCount="0" stopTime="0.00" timeLoss="-0.39" rerouteNo="0" devices="tripinfo_R_79" vType="car7@R_79" speedFactor="1.09" vaporized=""/>
    <tripinfo id="L_75" depart="37.00" departLane="4_0" departPos="6.10" departSpeed="0.00" departDelay="0.00" arrival="78.30" arrivalLane="-1_2" arrivalPos="200.00" arrivalSpeed="11.18" duration="41.30" routeLength="413.45" waitingTime="0.90" waitingCount="1" stopTime="0.00" timeLoss="-4456.16" rerouteNo="0" devices="tripinfo_L_75" vType="car6@L_75" speedFactor="0.98" vaporized=""/>