<?xml version="1.0" encoding="UTF-8"?>

<!-- generated on 03/30/21 16:28:57 by Eclipse SUMO GUI Version 1.8.0
<configuration xmlns:xsi="http://www.w3.org/2001/XMLSchema-instance" xsi:noNamespaceSchemaLocation="http://sumo.dlr.de/xsd/sumoConfiguration.xsd">

    <input>
        <net-file value="data/two_inter.net.xml"/>
        <route-files value="data/icacc+.rou.xml"/>
    </input>

    <output>
        <tripinfo-output value="tripinfo.xml"/>
    </output>

    <time>
        <begin value="0"/>
        <step-length value="0.1"/>
    </time>

    <processing>
        <threads value="8"/>
        <collision.mingap-factor value="0"/>
        <time-to-teleport value="-1"/>
        <default.speeddev value="1"/>
    </processing>

    <report>
        <verbose value="true"/>
        <log value="error_log.txt"/>
        <no-step-log value="true"/>
    </report>

    <traci_server>
        <remote-port value="3550"/>
    </traci_server>

    <gui_only>
        <start value="true"/>
        <tracker-interval value="0.1"/>
    </gui_only>

</configuration>
-->

<tripinfos xmlns:xsi="http://www.w3.org/2001/XMLSchema-instance" xsi:noNamespaceSchemaLocation="http://sumo.dlr.de/xsd/tripinfo_file.xsd">
    <tripinfo id="RX_8" depart="1.10" departLane="002_001_4_0" departPos="5.10" departSpeed="11.18" departDelay="0.10" arrival="37.50" arrivalLane="003_001_1_0" arrivalPos="200.00" arrivalSpeed="11.18" duration="36.40" routeLength="403.93" waitingTime="0.00" waitingCount="0" stopTime="0.00" timeLoss="-2.30" rerouteNo="1" devices="tripinfo_RX_8" vType="car5@RX_8" speedFactor="1.26" vaporized=""/>
    <tripinfo id="RX_6" depart="1.30" departLane="001_001_2_0" departPos="7.10" departSpeed="11.18" departDelay="0.30" arrival="37.60" arrivalLane="000_001_3_0" arrivalPos="200.00" arrivalSpeed="11.18" duration="36.30" routeLength="401.93" waitingTime="0.00" waitingCount="0" stopTime="0.00" timeLoss="-2.57" rerouteNo="1" devices="tripinfo_RX_6" vType="car7@RX_6" speedFactor="1.00" vaporized=""/>
    <tripinfo id="SX_1" depart="0.00" departLane="001_001_2_1" departPos="9.10" departSpeed="11.18" departDelay="0.00" arrival="38.10" arrivalLane="001_000_2_0" arrivalPos="200.00" arrivalSpeed="11.18" duration="38.10" routeLength="418.10" waitingTime="0.00" waitingCount="0" stopTime="0.00" timeLoss="-0.04" rerouteNo="1" devices="tripinfo_SX_1" vType="car9@SX_1" speedFactor="1.60" vaporized=""/>
    <tripinfo id="SX_4" depart="0.00" departLane="002_001_4_1" departPos="7.10" departSpeed="11.18" departDelay="0.00" arrival="38.10" arrivalLane="002_002_4_0" arrivalPos="200.00" arrivalSpeed="11.18" duration="38.10" routeLength="420.10" waitingTime="0.00" waitingCount="0" stopTime="0.00" timeLoss="-0.01" rerouteNo="1" devices="tripinfo_SX_4" vType="car7@SX_4" speedFactor="1.30" vaporized=""/>
    <tripinfo id="RX_10" depart="2.40" departLane="001_001_2_0" departPos="5.10" departSpeed="11.18" departDelay="0.40" arrival="38.70" arrivalLane="000_001_3_0" arrivalPos="200.00" arrivalSpeed="11.18" duration="36.30" routeLength="403.93" waitingTime="0.00" waitingCount="0" stopTime="0.00" timeLoss="-2.47" rerouteNo="1" devices="tripinfo_RX_10" vType="car5@RX_10" speedFactor="1.10" vaporized=""/>
    <tripinfo id="SX_2" depart="0.00" departLane="001_001_4_1" departPos="7.10" departSpeed="11.18" departDelay="0.00" arrival="39.30" arrivalLane="001_002_4_2" arrivalPos="200.00" arrivalSpeed="11.18" duration="39.30" routeLength="420.10" waitingTime="0.00" waitingCount="0" stopTime="0.00" timeLoss="-0.19" rerouteNo="1" devices="tripinfo_SX_2" vType="car7@SX_2" speedFactor="1.10" vaporized=""/>
    <tripinfo id="RX_17" depart="3.00" departLane="002_001_3_0" departPos="7.10" departSpeed="11.18" departDelay="0.00" arrival="39.40" arrivalLane="002_002_4_0" arrivalPos="200.00" arrivalSpeed="11.18" duration="36.40" routeLength="401.93" waitingTime="0.00" waitingCount="0" stopTime="0.00" timeLoss="-2.13" rerouteNo="1" devices="tripinfo_RX_17" vType="car7@RX_17" speedFactor="1.91" vaporized=""/>
    <tripinfo id="RX_5" depart="1.00" departLane="001_001_1_0" departPos="5.10" departSpeed="11.18" departDelay="0.00" arrival="39.60" arrivalLane="001_000_2_0" arrivalPos="200.00" arrivalSpeed="11.18" duration="38.60" routeLength="403.93" waitingTime="1.40" waitingCount="1" stopTime="0.00" timeLoss="-4060.89" rerouteNo="1" devices="tripinfo_RX_5" vType="car5@RX_5" speedFactor="1.46" vaporized=""/>
    <tripinfo id="RX_24" depart="4.00" departLane="002_001_4_0" departPos="8.10" departSpeed="11.18" departDelay="0.00" arrival="40.00" arrivalLane="003_001_1_0" arrivalPos="200.00" arrivalSpeed="11.18" duration="36.00" routeLength="400.93" waitingTime="0.00" waitingCount="0" stopTime="0.00" timeLoss="-2.61" rerouteNo="1" devices="tripinfo_RX_24" vType="car8@RX_24" speedFactor="1.00" vaporized=""/>
    <tripinfo id="LX_11" depart="2.00" departLane="001_001_4_2" departPos="7.10" departSpeed="11.18" departDelay="0.00" arrival="40.10" arrivalLane="000_001_3_2" arrivalPos="200.00" arrivalSpeed="11.18" duration="38.10" routeLength="416.11" waitingTime="0.00" waitingCount="0" stopTime="0.00" timeLoss="-1.99" rerouteNo="1" devices="tripinfo_LX_11" vType="car7@LX_11" speedFactor="1.83" vaporized=""/>
    <tripinfo id="RX_20" depart="4.00" departLane="001_001_2_0" departPos="9.10" departSpeed="11.18" departDelay="0.00" arrival="40.40" arrivalLane="000_001_3_0" arrivalPos="200.00" arrivalSpeed="11.18" duration="36.40" routeLength="399.93" waitingTime="0.00" waitingCount="0" stopTime="0.00" timeLoss="-2.17" rerouteNo="1" devices="tripinfo_RX_20" vType="car9@RX_20" speedFactor="1.47" vaporized=""/>
    <tripinfo id="SX_7" depart="1.00" departLane="002_001_2_1" departPos="9.10" departSpeed="11.18" departDelay="0.00" arrival="40.70" arrivalLane="002_000_2_2" arrivalPos="200.00" arrivalSpeed="11.18" duration="39.70" routeLength="418.10" waitingTime="0.00" waitingCount="0" stopTime="0.00" timeLoss="-0.40" rerouteNo="1" devices="tripinfo_SX_7" vType="car9@SX_7" speedFactor="1.91" vaporized=""/>
    <tripinfo id="RX_29" depart="5.00" departLane="002_001_3_0" departPos="7.10" departSpeed="11.18" departDelay="0.00" arrival="41.10" arrivalLane="002_002_4_0" arrivalPos="200.00" arrivalSpeed="11.18" duration="36.10" routeLength="401.93" waitingTime="0.00" waitingCount="0" stopTime="0.00" timeLoss="-2.61" rerouteNo="1" devices="tripinfo_RX_29" vType="car7@RX_29" speedFactor="1.00" vaporized=""/>
    <tripinfo id="RX_14" depart="5.20" departLane="001_001_1_0" departPos="9.10" departSpeed="11.18" departDelay="2.20" arrival="41.30" arrivalLane="001_000_2_0" arrivalPos="200.00" arrivalSpeed="11.18" duration="36.10" routeLength="399.93" waitingTime="0.00" waitingCount="0" stopTime="0.00" timeLoss="-2.34" rerouteNo="1" devices="tripinfo_RX_14" vType="car9@RX_14" speedFactor="1.18" vaporized=""/>
    <tripinfo id="RX_30" depart="5.50" departLane="002_001_4_0" departPos="9.10" departSpeed="11.18" departDelay="0.50" arrival="41.40" arrivalLane="003_001_1_0" arrivalPos="200.00" arrivalSpeed="11.18" duration="35.90" routeLength="399.93" waitingTime="0.00" waitingCount="0" stopTime="0.00" timeLoss="-2.41" rerouteNo="1" devices="tripinfo_RX_30" vType="car9@RX_30" speedFactor="1.17" vaporized=""/>
    <tripinfo id="SX_22" depart="4.00" departLane="002_001_2_1" departPos="8.10" departSpeed="11.18" departDelay="0.00" arrival="41.50" arrivalLane="002_000_2_1" arrivalPos="200.00" arrivalSpeed="11.18" duration="37.50" routeLength="419.10" waitingTime="0.00" waitingCount="0" stopTime="0.00" timeLoss="0.00" rerouteNo="1" devices="tripinfo_SX_22" vType="car8@SX_22" speedFactor="1.00" vaporized=""/>
    <tripinfo id="LX_12" depart="2.20" departLane="002_001_2_2" departPos="6.10" departSpeed="11.18" departDelay="0.20" arrival="41.70" arrivalLane="003_001_1_2" arrivalPos="200.00" arrivalSpeed="11.18" duration="39.50" routeLength="417.11" waitingTime="0.00" waitingCount="0" stopTime="0.00" timeLoss="-1.91" rerouteNo="1" devices="tripinfo_LX_12" vType="car6@LX_12" speedFactor="1.30" vaporized=""/>
    <tripinfo id="SX_21" depart="4.00" departLane="001_001_4_1" departPos="6.10" departSpeed="11.18" departDelay="0.00" arrival="41.70" arrivalLane="001_002_4_1" arrivalPos="200.00" arrivalSpeed="11.18" duration="37.70" routeLength="421.10" waitingTime="0.00" waitingCount="0" stopTime="0.00" timeLoss="0.00" rerouteNo="1" devices="tripinfo_SX_21" vType="car6@SX_21" speedFactor="1.20" vaporized=""/>
    <tripinfo id="RX_32" depart="6.00" departLane="001_001_2_0" departPos="7.10" departSpeed="11.18" departDelay="0.00" arrival="42.10" arrivalLane="000_001_3_0" arrivalPos="200.00" arrivalSpeed="11.18" duration="36.10" routeLength="401.93" waitingTime="0.00" waitingCount="0" stopTime="0.00" timeLoss="-2.56" rerouteNo="1" devices="tripinfo_RX_32" vType="car7@RX_32" speedFactor="1.03" vaporized=""/>
    <tripinfo id="LX_19" depart="4.00" departLane="001_001_1_2" departPos="5.10" departSpeed="11.18" departDelay="0.00" arrival="42.50" arrivalLane="001_002_4_2" arrivalPos="200.00" arrivalSpeed="11.18" duration="38.50" routeLength="418.12" waitingTime="0.00" waitingCount="0" stopTime="0.00" timeLoss="-2.14" rerouteNo="1" devices="tripinfo_LX_19" vType="car5@LX_19" speedFactor="1.05" vaporized=""/>
    <tripinfo id="LX_23" depart="4.00" departLane="002_001_3_2" departPos="7.10" departSpeed="11.18" departDelay="0.00" arrival="44.10" arrivalLane="002_000_2_2" arrivalPos="200.00" arrivalSpeed="11.18" duration="40.10" routeLength="416.12" waitingTime="1.70" waitingCount="1" stopTime="0.00" timeLoss="-4297.71" rerouteNo="1" devices="tripinfo_LX_23" vType="car7@LX_23" speedFactor="1.30" vaporized=""/>
    <tripinfo id="SX_38" depart="7.00" departLane="001_001_2_1" departPos="9.10" departSpeed="11.18" departDelay="0.00" arrival="44.40" arrivalLane="001_000_2_1" arrivalPos="200.00" arrivalSpeed="11.18" duration="37.40" routeLength="418.10" waitingTime="0.00" waitingCount="0" stopTime="0.00" timeLoss="0.00" rerouteNo="1" devices="tripinfo_SX_38" vType="car9@SX_38" speedFactor="1.10" vaporized=""/>
    <tripinfo id="LX_35" depart="6.00" departLane="002_001_3_2" departPos="5.10" departSpeed="11.18" departDelay="0.00" arrival="45.10" arrivalLane="002_000_2_2" arrivalPos="200.00" arrivalSpeed="11.18" duration="39.10" routeLength="418.12" waitingTime="0.70" waitingCount="1" stopTime="0.00" timeLoss="-0.88" rerouteNo="1" devices="tripinfo_LX_35" vType="car5@LX_35" speedFactor="1.18" vaporized=""/>
    <tripinfo id="RX_53" depart="9.00" departLane="002_001_3_0" departPos="6.10" departSpeed="11.18" departDelay="0.00" arrival="45.20" arrivalLane="002_002_4_0" arrivalPos="200.00" arrivalSpeed="11.18" duration="36.20" routeLength="402.93" waitingTime="0.00" waitingCount="0" stopTime="0.00" timeLoss="-2.61" rerouteNo="1" devices="tripinfo_RX_53" vType="car6@RX_53" speedFactor="1.00" vaporized=""/>
    <tripinfo id="SX_28" depart="5.50" departLane="002_001_2_1" departPos="9.10" departSpeed="11.18" departDelay="0.50" arrival="45.40" arrivalLane="002_000_2_0" arrivalPos="200.00" arrivalSpeed="11.18" duration="39.90" routeLength="418.10" waitingTime="0.00" waitingCount="0" stopTime="0.00" timeLoss="-0.85" rerouteNo="1" devices="tripinfo_SX_28" vType="car9@SX_28" speedFactor="1.88" vaporized=""/>
    <tripinfo id="LX_40" depart="7.00" departLane="002_001_2_2" departPos="6.10" departSpeed="11.18" departDelay="0.00" arrival="45.40" arrivalLane="003_001_1_2" arrivalPos="200.00" arrivalSpeed="11.18" duration="38.40" routeLength="417.11" waitingTime="0.00" waitingCount="0" stopTime="0.00" timeLoss="-7.58" rerouteNo="1" devices="tripinfo_LX_40" vType="car6@LX_40" speedFactor="1.40" vaporized=""/>
    <tripinfo id="SX_27" depart="5.50" departLane="001_001_4_1" departPos="9.10" departSpeed="11.18" departDelay="0.50" arrival="45.60" arrivalLane="001_002_4_2" arrivalPos="200.00" arrivalSpeed="11.18" duration="40.10" routeLength="418.10" waitingTime="1.70" waitingCount="1" stopTime="0.00" timeLoss="-4526.48" rerouteNo="1" devices="tripinfo_SX_27" vType="car9@SX_27" speedFactor="1.43" vaporized=""/>
    <tripinfo id="LX_33" depart="6.70" departLane="001_001_4_2" departPos="6.10" departSpeed="11.18" departDelay="0.70" arrival="46.50" arrivalLane="000_001_3_2" arrivalPos="200.00" arrivalSpeed="11.18" duration="39.80" routeLength="417.11" waitingTime="1.70" waitingCount="1" stopTime="0.00" timeLoss="0.09" rerouteNo="1" devices="tripinfo_LX_33" vType="car6@LX_33" speedFactor="1.00" vaporized=""/>
    <tripinfo id="RX_55" depart="10.00" departLane="001_001_1_0" departPos="9.10" departSpeed="11.18" departDelay="0.00" arrival="46.70" arrivalLane="001_000_2_0" arrivalPos="200.00" arrivalSpeed="11.18" duration="36.70" routeLength="399.93" waitingTime="0.00" waitingCount="0" stopTime="0.00" timeLoss="-2.09" rerouteNo="1" devices="tripinfo_RX_55" vType="car9@RX_55" speedFactor="1.30" vaporized=""/>
    <tripinfo id="SX_42" depart="7.00" departLane="002_001_4_1" departPos="8.10" departSpeed="11.18" departDelay="0.00" arrival="47.20" arrivalLane="002_002_4_1" arrivalPos="200.00" arrivalSpeed="11.18" duration="40.20" routeLength="419.10" waitingTime="0.00" waitingCount="0" stopTime="0.00" timeLoss="-0.60" rerouteNo="1" devices="tripinfo_SX_42" vType="car8@SX_42" speedFactor="1.23" vaporized=""/>
    <tripinfo id="RX_70" depart="12.00" departLane="002_001_3_0" departPos="5.10" departSpeed="11.18" departDelay="0.00" arrival="48.30" arrivalLane="002_002_4_0" arrivalPos="200.00" arrivalSpeed="11.18" duration="36.30" routeLength="403.93" waitingTime="0.00" waitingCount="0" stopTime="0.00" timeLoss="-2.12" rerouteNo="1" devices="tripinfo_RX_70" vType="car5@RX_70" speedFactor="1.88" vaporized=""/>
    <tripinfo id="SX_48" depart="8.30" departLane="002_001_4_1" departPos="7.10" departSpeed="11.18" departDelay="0.30" arrival="48.40" arrivalLane="002_002_4_2" arrivalPos="200.00" arrivalSpeed="11.18" duration="40.10" routeLength="420.10" waitingTime="1.80" waitingCount="1" stopTime="0.00" timeLoss="2.38" rerouteNo="1" devices="tripinfo_SX_48" vType="car7@SX_48" speedFactor="1.32" vaporized=""/>
    <tripinfo id="LX_41" depart="7.50" departLane="002_001_3_2" departPos="9.10" departSpeed="11.18" departDelay="0.50" arrival="49.00" arrivalLane="002_000_2_2" arrivalPos="200.00" arrivalSpeed="11.18" duration="41.50" routeLength="414.12" waitingTime="2.40" waitingCount="2" stopTime="0.00" timeLoss="-4712.77" rerouteNo="1" devices="tripinfo_LX_41" vType="car9@LX_41" speedFactor="1.22" vaporized=""/>
    <tripinfo id="LX_43" depart="8.00" departLane="001_001_1_2" departPos="8.10" departSpeed="11.18" departDelay="0.00" arrival="49.00" arrivalLane="001_002_4_2" arrivalPos="200.00" arrivalSpeed="11.18" duration="41.00" routeLength="415.12" waitingTime="2.70" waitingCount="1" stopTime="0.00" timeLoss="-4407.73" rerouteNo="1" devices="tripinfo_LX_43" vType="car8@LX_43" speedFactor="1.00" vaporized=""/>
    <tripinfo id="RX_75" depart="13.00" departLane="002_001_4_0" departPos="6.10" departSpeed="11.18" departDelay="0.00" arrival="49.20" arrivalLane="003_001_1_0" arrivalPos="200.00" arrivalSpeed="11.18" duration="36.20" routeLength="402.93" waitingTime="0.00" waitingCount="0" stopTime="0.00" timeLoss="-2.61" rerouteNo="1" devices="tripinfo_RX_75" vType="car6@RX_75" speedFactor="1.00" vaporized=""/>
    <tripinfo id="SX_44" depart="8.30" departLane="001_001_2_1" departPos="7.10" departSpeed="11.18" departDelay="0.30" arrival="49.90" arrivalLane="001_000_2_0" arrivalPos="200.00" arrivalSpeed="11.18" duration="41.60" routeLength="420.10" waitingTime="0.00" waitingCount="0" stopTime="0.00" timeLoss="-0.26" rerouteNo="1" devices="tripinfo_SX_44" vType="car7@SX_44" speedFactor="1.00" vaporized=""/>
    <tripinfo id="LX_45" depart="8.20" departLane="001_001_4_2" departPos="9.10" departSpeed="11.18" departDelay="0.20" arrival="50.40" arrivalLane="000_001_3_2" arrivalPos="200.00" arrivalSpeed="11.18" duration="42.20" routeLength="414.11" waitingTime="3.40" waitingCount="2" stopTime="0.00" timeLoss="-4352.99" rerouteNo="1" devices="tripinfo_LX_45" vType="car9@LX_45" speedFactor="1.56" vaporized=""/>
    <tripinfo id="LX_46" depart="8.50" departLane="002_001_2_2" departPos="9.10" departSpeed="11.18" departDelay="0.50" arrival="50.50" arrivalLane="003_001_1_2" arrivalPos="200.00" arrivalSpeed="11.18" duration="42.00" routeLength="414.11" waitingTime="3.30" waitingCount="1" stopTime="0.00" timeLoss="-4271.54" rerouteNo="1" devices="tripinfo_LX_46" vType="car9@LX_46" speedFactor="1.05" vaporized=""/>
    <tripinfo id="RX_85" depart="15.00" departLane="002_001_3_0" departPos="5.10" departSpeed="11.18" departDelay="0.00" arrival="51.30" arrivalLane="002_002_4_0" arrivalPos="200.00" arrivalSpeed="11.18" duration="36.30" routeLength="403.93" waitingTime="0.00" waitingCount="0" stopTime="0.00" timeLoss="-2.27" rerouteNo="1" devices="tripinfo_RX_85" vType="car5@RX_85" speedFactor="1.31" vaporized=""/>
    <tripinfo id="SX_67" depart="12.30" departLane="001_001_2_1" departPos="5.10" departSpeed="11.18" departDelay="0.30" arrival="51.50" arrivalLane="001_000_2_2" arrivalPos="200.00" arrivalSpeed="11.18" duration="39.20" routeLength="422.10" waitingTime="0.00" waitingCount="0" stopTime="0.00" timeLoss="-0.07" rerouteNo="1" devices="tripinfo_SX_67" vType="car5@SX_67" speedFactor="1.65" vaporized=""/>
    <tripinfo id="SX_78" depart="14.00" departLane="001_001_4_1" departPos="8.10" departSpeed="11.18" departDelay="0.00" arrival="51.50" arrivalLane="001_002_4_1" arrivalPos="200.00" arrivalSpeed="11.18" duration="37.50" routeLength="419.10" waitingTime="0.00" waitingCount="0" stopTime="0.00" timeLoss="0.00" rerouteNo="1" devices="tripinfo_SX_78" vType="car8@SX_78" speedFactor="1.09" vaporized=""/>
    <tripinfo id="RX_76" depart="14.00" departLane="001_001_1_0" departPos="7.10" departSpeed="11.18" departDelay="0.00" arrival="51.80" arrivalLane="001_000_2_0" arrivalPos="200.00" arrivalSpeed="11.18" duration="37.80" routeLength="401.93" waitingTime="0.00" waitingCount="0" stopTime="0.00" timeLoss="-2.72" rerouteNo="1" devices="tripinfo_RX_76" vType="car7@RX_76" speedFactor="1.17" vaporized=""/>
    <tripinfo id="RX_91" depart="16.00" departLane="002_001_4_0" departPos="9.10" departSpeed="11.18" departDelay="0.00" arrival="51.90" arrivalLane="003_001_1_0" arrivalPos="200.00" arrivalSpeed="11.18" duration="35.90" routeLength="399.93" waitingTime="0.00" waitingCount="0" stopTime="0.00" timeLoss="-2.12" rerouteNo="1" devices="tripinfo_RX_91" vType="car9@RX_91" speedFactor="1.68" vaporized=""/>
    <tripinfo id="SX_54" depart="9.00" departLane="002_001_4_1" departPos="9.10" departSpeed="11.18" departDelay="0.00" arrival="52.60" arrivalLane="002_002_4_1" arrivalPos="200.00" arrivalSpeed="11.18" duration="43.60" routeLength="418.10" waitingTime="0.00" waitingCount="0" stopTime="0.00" timeLoss="-0.57" rerouteNo="1" devices="tripinfo_SX_54" vType="car9@SX_54" speedFactor="1.17" vaporized=""/>
    <tripinfo id="RX_81" depart="15.30" departLane="001_001_1_0" departPos="7.10" departSpeed="11.18" departDelay="0.30" arrival="52.70" arrivalLane="001_000_2_0" arrivalPos="200.00" arrivalSpeed="11.18" duration="37.40" routeLength="401.93" waitingTime="0.00" waitingCount="0" stopTime="0.00" timeLoss="-2.36" rerouteNo="1" devices="tripinfo_RX_81" vType="car7@RX_81" speedFactor="1.04" vaporized=""/>
    <tripinfo id="LX_49" depart="9.20" departLane="001_001_1_2" departPos="6.10" departSpeed="11.18" departDelay="0.20" arrival="53.20" arrivalLane="001_002_4_2" arrivalPos="200.00" arrivalSpeed="11.18" duration="44.00" routeLength="417.12" waitingTime="5.00" waitingCount="2" stopTime="0.00" timeLoss="-4435.67" rerouteNo="1" devices="tripinfo_LX_49" vType="car6@LX_49" speedFactor="1.20" vaporized=""/>
    <tripinfo id="LX_63" depart="11.00" departLane="001_001_4_2" departPos="8.10" departSpeed="11.18" departDelay="0.00" arrival="53.60" arrivalLane="000_001_3_2" arrivalPos="200.00" arrivalSpeed="11.18" duration="42.60" routeLength="415.11" waitingTime="3.50" waitingCount="2" stopTime="0.00" timeLoss="-4789.73" rerouteNo="1" devices="tripinfo_LX_63" vType="car8@LX_63" speedFactor="1.91" vaporized=""/>
    <tripinfo id="RX_87" depart="16.50" departLane="001_001_1_0" departPos="6.10" departSpeed="11.18" departDelay="0.50" arrival="53.70" arrivalLane="001_000_2_0" arrivalPos="200.00" arrivalSpeed="11.18" duration="37.20" routeLength="402.93" waitingTime="0.00" waitingCount="0" stopTime="0.00" timeLoss="-2.14" rerouteNo="1" devices="tripinfo_RX_87" vType="car6@RX_87" speedFactor="1.61" vaporized=""/>
    <tripinfo id="LX_47" depart="8.70" departLane="002_001_3_2" departPos="6.10" departSpeed="11.18" departDelay="0.70" arrival="54.30" arrivalLane="002_000_2_2" arrivalPos="200.00" arrivalSpeed="11.18" duration="45.60" routeLength="417.12" waitingTime="5.50" waitingCount="2" stopTime="0.00" timeLoss="-4678.48" rerouteNo="1" devices="tripinfo_LX_47" vType="car6@LX_47" speedFactor="1.00" vaporized=""/>
    <tripinfo id="RX_104" depart="19.00" departLane="001_001_1_0" departPos="8.10" departSpeed="11.18" departDelay="0.00" arrival="55.00" arrivalLane="001_000_2_0" arrivalPos="200.00" arrivalSpeed="11.18" duration="36.00" routeLength="400.93" waitingTime="0.00" waitingCount="0" stopTime="0.00" timeLoss="-2.12" rerouteNo="1" devices="tripinfo_RX_104" vType="car8@RX_104" speedFactor="1.71" vaporized=""/>
    <tripinfo id="LX_59" depart="10.00" departLane="002_001_3_2" departPos="5.10" departSpeed="11.18" departDelay="0.00" arrival="55.20" arrivalLane="002_000_2_2" arrivalPos="200.00" arrivalSpeed="11.18" duration="45.20" routeLength="418.12" waitingTime="5.50" waitingCount="2" stopTime="0.00" timeLoss="5.24" rerouteNo="1" devices="tripinfo_LX_59" vType="car5@LX_59" speedFactor="1.07" vaporized=""/>
    <tripinfo id="RX_108" depart="19.00" departLane="002_001_4_0" departPos="8.10" departSpeed="11.18" departDelay="0.00" arrival="55.40" arrivalLane="003_001_1_0" arrivalPos="200.00" arrivalSpeed="11.18" duration="36.40" routeLength="400.93" waitingTime="0.00" waitingCount="0" stopTime="0.00" timeLoss="-2.13" rerouteNo="1" devices="tripinfo_RX_108" vType="car8@RX_108" speedFactor="1.78" vaporized=""/>
    <tripinfo id="LX_58" depart="10.00" departLane="002_001_2_2" departPos="9.10" departSpeed="11.18" departDelay="0.00" arrival="55.50" arrivalLane="003_001_1_2" arrivalPos="200.00" arrivalSpeed="11.18" duration="45.50" routeLength="414.11" waitingTime="6.40" waitingCount="2" stopTime="0.00" timeLoss="-4073.20" rerouteNo="1" devices="tripinfo_LX_58" vType="car9@LX_58" speedFactor="1.43" vaporized=""/>
    <tripinfo id="SX_56" depart="10.00" departLane="001_001_2_1" departPos="5.10" departSpeed="11.18" departDelay="0.00" arrival="55.60" arrivalLane="001_000_2_1" arrivalPos="200.00" arrivalSpeed="11.18" duration="45.60" routeLength="422.10" waitingTime="6.90" waitingCount="1" stopTime="0.00" timeLoss="-4058.72" rerouteNo="1" devices="tripinfo_SX_56" vType="car5@SX_56" speedFactor="1.00" vaporized=""/>
    <tripinfo id="SX_79" depart="14.00" departLane="002_001_2_1" departPos="5.10" departSpeed="11.18" departDelay="0.00" arrival="55.60" arrivalLane="002_000_2_1" arrivalPos="200.00" arrivalSpeed="11.18" duration="41.60" routeLength="422.10" waitingTime="2.90" waitingCount="1" stopTime="0.00" timeLoss="-4058.71" rerouteNo="1" devices="tripinfo_SX_79" vType="car5@SX_79" speedFactor="1.96" vaporized=""/>
    <tripinfo id="RX_107" depart="19.00" departLane="002_001_3_0" departPos="8.10" departSpeed="11.18" departDelay="0.00" arrival="55.80" arrivalLane="002_002_4_0" arrivalPos="200.00" arrivalSpeed="11.18" duration="36.80" routeLength="400.93" waitingTime="0.00" waitingCount="0" stopTime="0.00" timeLoss="-1.97" rerouteNo="1" devices="tripinfo_RX_107" vType="car8@RX_107" speedFactor="1.79" vaporized=""/>
    <tripinfo id="SX_88" depart="16.40" departLane="001_001_2_1" departPos="8.10" departSpeed="11.18" departDelay="0.40" arrival="56.00" arrivalLane="001_000_2_2" arrivalPos="200.00" arrivalSpeed="11.18" duration="39.60" routeLength="419.10" waitingTime="0.00" waitingCount="0" stopTime="0.00" timeLoss="-0.15" rerouteNo="1" devices="tripinfo_SX_88" vType="car8@SX_88" speedFactor="1.32" vaporized=""/>
    <tripinfo id="SR_0" depart="0.00" departLane="001_001_1_1" departPos="8.10" departSpeed="11.18" departDelay="0.00" arrival="56.30" arrivalLane="002_000_2_0" arrivalPos="200.00" arrivalSpeed="11.18" duration="56.30" routeLength="628.13" waitingTime="0.00" waitingCount="0" stopTime="0.00" timeLoss="-2.12" rerouteNo="2" devices="tripinfo_SR_0" vType="car8@SR_0" speedFactor="1.60" vaporized=""/>
    <tripinfo id="SX_62" depart="11.20" departLane="001_001_2_1" departPos="6.10" departSpeed="11.18" departDelay="0.20" arrival="56.30" arrivalLane="001_000_2_1" arrivalPos="200.00" arrivalSpeed="11.18" duration="45.10" routeLength="421.10" waitingTime="6.80" waitingCount="1" stopTime="0.00" timeLoss="7.39" rerouteNo="1" devices="tripinfo_SX_62" vType="car6@SX_62" speedFactor="1.92" vaporized=""/>
    <tripinfo id="RX_109" depart="20.10" departLane="001_001_1_0" departPos="5.10" departSpeed="11.18" departDelay="0.10" arrival="56.40" arrivalLane="001_000_2_0" arrivalPos="200.00" arrivalSpeed="11.18" duration="36.30" routeLength="403.93" waitingTime="0.00" waitingCount="0" stopTime="0.00" timeLoss="-2.21" rerouteNo="1" devices="tripinfo_RX_109" vType="car5@RX_109" speedFactor="1.40" vaporized=""/>
    <tripinfo id="SX_101" depart="18.00" departLane="002_001_2_1" departPos="5.10" departSpeed="11.18" departDelay="0.00" arrival="56.50" arrivalLane="002_000_2_1" arrivalPos="200.00" arrivalSpeed="11.18" duration="38.50" routeLength="422.10" waitingTime="0.00" waitingCount="0" stopTime="0.00" timeLoss="-0.05" rerouteNo="1" devices="tripinfo_SX_101" vType="car5@SX_101" speedFactor="1.40" vaporized=""/>
    <tripinfo id="RX_113" depart="20.10" departLane="002_001_4_0" departPos="5.10" departSpeed="11.18" departDelay="0.10" arrival="56.50" arrivalLane="003_001_1_0" arrivalPos="200.00" arrivalSpeed="11.18" duration="36.40" routeLength="403.93" waitingTime="0.00" waitingCount="0" stopTime="0.00" timeLoss="-2.36" rerouteNo="1" devices="tripinfo_RX_113" vType="car5@RX_113" speedFactor="1.22" vaporized=""/>
    <tripinfo id="SX_86" depart="15.00" departLane="002_001_4_1" departPos="5.10" departSpeed="11.18" departDelay="0.00" arrival="57.50" arrivalLane="002_002_4_2" arrivalPos="200.00" arrivalSpeed="11.18" duration="42.50" routeLength="422.10" waitingTime="3.00" waitingCount="2" stopTime="0.00" timeLoss="-4813.37" rerouteNo="1" devices="tripinfo_SX_86" vType="car5@SX_86" speedFactor="1.23" vaporized=""/>
    <tripinfo id="LX_61" depart="11.00" departLane="001_001_1_2" departPos="5.10" departSpeed="11.18" departDelay="0.00" arrival="57.80" arrivalLane="001_002_4_2" arrivalPos="200.00" arrivalSpeed="11.18" duration="46.80" routeLength="418.12" waitingTime="6.70" waitingCount="3" stopTime="0.00" timeLoss="-4765.74" rerouteNo="1" devices="tripinfo_LX_61" vType="car5@LX_61" speedFactor="1.17" vaporized=""/>
    <tripinfo id="RR_15" depart="3.00" departLane="001_001_4_0" departPos="8.10" departSpeed="11.18" departDelay="0.00" arrival="58.20" arrivalLane="002_000_2_0" arrivalPos="200.00" arrivalSpeed="11.18" duration="55.20" routeLength="609.96" waitingTime="0.00" waitingCount="0" stopTime="0.00" timeLoss="-2.85" rerouteNo="2" devices="tripinfo_RR_15" vType="car8@RR_15" speedFactor="1.10" vaporized=""/>
    <tripinfo id="LX_80" depart="14.00" departLane="002_001_3_2" departPos="8.10" departSpeed="11.18" departDelay="0.00" arrival="58.20" arrivalLane="002_000_2_2" arrivalPos="200.00" arrivalSpeed="11.18" duration="44.20" routeLength="415.12" waitingTime="4.60" waitingCount="2" stopTime="0.00" timeLoss="-4638.93" rerouteNo="1" devices="tripinfo_LX_80" vType="car8@LX_80" speedFactor="1.96" vaporized=""/>
    <tripinfo id="RX_120" depart="22.00" departLane="001_001_2_0" departPos="5.10" departSpeed="11.18" departDelay="0.00" arrival="58.30" arrivalLane="000_001_3_0" arrivalPos="200.00" arrivalSpeed="11.18" duration="36.30" routeLength="403.93" waitingTime="0.00" waitingCount="0" stopTime="0.00" timeLoss="-2.12" rerouteNo="1" devices="tripinfo_RX_120" vType="car5@RX_120" speedFactor="1.65" vaporized=""/>
    <tripinfo id="LX_66" depart="12.30" departLane="001_001_1_2" departPos="7.10" departSpeed="11.18" departDelay="0.30" arrival="58.50" arrivalLane="001_002_4_2" arrivalPos="200.00" arrivalSpeed="11.18" duration="46.20" routeLength="416.12" waitingTime="6.30" waitingCount="3" stopTime="0.00" timeLoss="6.58" rerouteNo="1" devices="tripinfo_LX_66" vType="car7@LX_66" speedFactor="1.97" vaporized=""/>
    <tripinfo id="SX_106" depart="19.40" departLane="002_001_2_1" departPos="8.10" departSpeed="11.18" departDelay="0.40" arrival="58.90" arrivalLane="002_000_2_1" arrivalPos="200.00" arrivalSpeed="11.18" duration="39.50" routeLength="419.10" waitingTime="0.00" waitingCount="0" stopTime="0.00" timeLoss="-0.09" rerouteNo="1" devices="tripinfo_SX_106" vType="car8@SX_106" speedFactor="1.65" vaporized=""/>
    <tripinfo id="RX_129" depart="23.00" departLane="002_001_3_0" departPos="7.10" departSpeed="11.18" departDelay="0.00" arrival="59.10" arrivalLane="002_002_4_0" arrivalPos="200.00" arrivalSpeed="11.18" duration="36.10" routeLength="401.93" waitingTime="0.00" waitingCount="0" stopTime="0.00" timeLoss="-2.61" rerouteNo="1" devices="tripinfo_RX_129" vType="car7@RX_129" speedFactor="1.00" vaporized=""/>
    <tripinfo id="LX_84" depart="15.00" departLane="002_001_2_2" departPos="5.10" departSpeed="11.18" departDelay="0.00" arrival="59.40" arrivalLane="003_001_1_2" arrivalPos="200.00" arrivalSpeed="11.18" duration="44.40" routeLength="418.11" waitingTime="5.00" waitingCount="2" stopTime="0.00" timeLoss="-4414.38" rerouteNo="1" devices="tripinfo_LX_84" vType="car5@LX_84" speedFactor="1.00" vaporized=""/>