<?xml version="1.0" encoding="UTF-8"?>

<!-- generated on 02/21/21 00:50:35 by Eclipse SUMO sumo Version 1.8.0
<configuration xmlns:xsi="http://www.w3.org/2001/XMLSchema-instance" xsi:noNamespaceSchemaLocation="http://sumo.dlr.de/xsd/sumoConfiguration.xsd">

    <input>
        <net-file value="data/two_inter.net.xml"/>
        <route-files value="data/icacc+.rou.xml"/>
    </input>

    <output>
        <tripinfo-output value="tripinfo.xml"/>
    </output>

    <time>
        <begin value="0"/>
        <step-length value="0.1"/>
    </time>

    <processing>
        <threads value="8"/>
        <collision.mingap-factor value="0"/>
        <time-to-teleport value="-1"/>
        <default.speeddev value="1"/>
    </processing>

    <report>
        <verbose value="true"/>
        <log value="error_log.txt"/>
        <no-step-log value="true"/>
    </report>

    <traci_server>
        <remote-port value="7346"/>
    </traci_server>

    <gui_only>
        <start value="true"/>
        <tracker-interval value="0.1"/>
    </gui_only>

</configuration>
-->

<tripinfos xmlns:xsi="http://www.w3.org/2001/XMLSchema-instance" xsi:noNamespaceSchemaLocation="http://sumo.dlr.de/xsd/tripinfo_file.xsd">
    <tripinfo id="RX_2" depart="0.00" departLane="002_001_3_0" departPos="8.10" departSpeed="11.18" departDelay="0.00" arrival="36.00" arrivalLane="002_002_4_0" arrivalPos="200.00" arrivalSpeed="11.18" duration="36.00" routeLength="400.93" waitingTime="0.00" waitingCount="0" stopTime="0.00" timeLoss="-2.48" rerouteNo="1" devices="tripinfo_RX_2" vType="car8@RX_2" speedFactor="1.10" vaporized=""/>
    <tripinfo id="RX_4" depart="1.00" departLane="001_001_1_0" departPos="8.10" departSpeed="11.18" departDelay="0.00" arrival="37.00" arrivalLane="001_000_2_0" arrivalPos="200.00" arrivalSpeed="11.18" duration="36.00" routeLength="400.93" waitingTime="0.00" waitingCount="0" stopTime="0.00" timeLoss="-2.28" rerouteNo="1" devices="tripinfo_RX_4" vType="car8@RX_4" speedFactor="1.30" vaporized=""/>
    <tripinfo id="SX_0" depart="0.00" departLane="001_001_4_1" departPos="7.10" departSpeed="11.18" departDelay="0.00" arrival="37.60" arrivalLane="001_002_4_2" arrivalPos="200.00" arrivalSpeed="11.18" duration="37.60" routeLength="420.10" waitingTime="0.00" waitingCount="0" stopTime="0.00" timeLoss="0.00" rerouteNo="1" devices="tripinfo_SX_0" vType="car7@SX_0" speedFactor="1.60" vaporized=""/>
    <tripinfo id="LX_1" depart="0.00" departLane="002_001_2_2" departPos="6.10" departSpeed="11.18" departDelay="0.00" arrival="37.60" arrivalLane="003_001_1_2" arrivalPos="200.00" arrivalSpeed="11.18" duration="37.60" routeLength="417.11" waitingTime="0.00" waitingCount="0" stopTime="0.00" timeLoss="-2.12" rerouteNo="1" devices="tripinfo_LX_1" vType="car6@LX_1" speedFactor="1.60" vaporized=""/>
    <tripinfo id="SX_3" depart="0.00" departLane="002_001_4_1" departPos="6.10" departSpeed="11.18" departDelay="0.00" arrival="38.50" arrivalLane="002_002_4_2" arrivalPos="200.00" arrivalSpeed="11.18" duration="38.50" routeLength="421.10" waitingTime="0.00" waitingCount="0" stopTime="0.00" timeLoss="-0.02" rerouteNo="1" devices="tripinfo_SX_3" vType="car6@SX_3" speedFactor="1.83" vaporized=""/>
    <tripinfo id="RX_10" depart="2.00" departLane="002_001_3_0" departPos="5.10" departSpeed="11.18" departDelay="0.00" arrival="39.00" arrivalLane="002_002_4_0" arrivalPos="200.00" arrivalSpeed="11.18" duration="37.00" routeLength="403.93" waitingTime="0.00" waitingCount="0" stopTime="0.00" timeLoss="-2.48" rerouteNo="1" devices="tripinfo_RX_10" vType="car5@RX_10" speedFactor="1.10" vaporized=""/>
    <tripinfo id="LX_9" depart="2.00" departLane="001_001_4_2" departPos="6.10" departSpeed="11.18" departDelay="0.00" arrival="39.60" arrivalLane="000_001_3_2" arrivalPos="200.00" arrivalSpeed="11.18" duration="37.60" routeLength="417.11" waitingTime="0.00" waitingCount="0" stopTime="0.00" timeLoss="-2.12" rerouteNo="1" devices="tripinfo_LX_9" vType="car6@LX_9" speedFactor="1.47" vaporized=""/>
    <tripinfo id="LX_6" depart="1.00" departLane="002_001_3_2" departPos="8.10" departSpeed="11.18" departDelay="0.00" arrival="40.20" arrivalLane="002_000_2_2" arrivalPos="200.00" arrivalSpeed="11.18" duration="39.20" routeLength="415.12" waitingTime="0.00" waitingCount="0" stopTime="0.00" timeLoss="-2.24" rerouteNo="1" devices="tripinfo_LX_6" vType="car8@LX_6" speedFactor="1.00" vaporized=""/>
    <tripinfo id="RX_15" depart="4.00" departLane="001_001_2_0" departPos="6.10" departSpeed="11.18" departDelay="0.00" arrival="40.20" arrivalLane="000_001_3_0" arrivalPos="200.00" arrivalSpeed="11.18" duration="36.20" routeLength="402.93" waitingTime="0.00" waitingCount="0" stopTime="0.00" timeLoss="-2.48" rerouteNo="1" devices="tripinfo_RX_15" vType="car6@RX_15" speedFactor="1.10" vaporized=""/>
    <tripinfo id="RX_14" depart="3.00" departLane="002_001_4_0" departPos="6.10" departSpeed="11.18" departDelay="0.00" arrival="40.60" arrivalLane="003_001_1_0" arrivalPos="200.00" arrivalSpeed="11.18" duration="37.60" routeLength="402.93" waitingTime="0.00" waitingCount="0" stopTime="0.00" timeLoss="-2.20" rerouteNo="1" devices="tripinfo_RX_14" vType="car6@RX_14" speedFactor="1.18" vaporized=""/>
    <tripinfo id="RX_20" depart="5.00" departLane="001_001_1_0" departPos="7.10" departSpeed="11.18" departDelay="0.00" arrival="41.10" arrivalLane="001_000_2_0" arrivalPos="200.00" arrivalSpeed="11.18" duration="36.10" routeLength="401.93" waitingTime="0.00" waitingCount="0" stopTime="0.00" timeLoss="-2.16" rerouteNo="1" devices="tripinfo_RX_20" vType="car7@RX_20" speedFactor="1.47" vaporized=""/>
    <tripinfo id="SX_7" depart="1.00" departLane="002_001_4_1" departPos="8.10" departSpeed="11.18" departDelay="0.00" arrival="41.20" arrivalLane="002_002_4_0" arrivalPos="200.00" arrivalSpeed="11.18" duration="40.20" routeLength="419.10" waitingTime="0.00" waitingCount="0" stopTime="0.00" timeLoss="-0.46" rerouteNo="1" devices="tripinfo_SX_7" vType="car8@SX_7" speedFactor="1.91" vaporized=""/>
    <tripinfo id="LX_5" depart="1.40" departLane="002_001_2_2" departPos="8.10" departSpeed="11.18" departDelay="0.40" arrival="41.80" arrivalLane="003_001_1_2" arrivalPos="200.00" arrivalSpeed="11.18" duration="40.40" routeLength="415.11" waitingTime="2.10" waitingCount="1" stopTime="0.00" timeLoss="-4407.73" rerouteNo="1" devices="tripinfo_LX_5" vType="car8@LX_5" speedFactor="1.46" vaporized=""/>
    <tripinfo id="LX_12" depart="3.00" departLane="001_001_1_2" departPos="7.10" departSpeed="11.18" departDelay="0.00" arrival="42.00" arrivalLane="001_002_4_2" arrivalPos="200.00" arrivalSpeed="11.18" duration="39.00" routeLength="416.12" waitingTime="0.00" waitingCount="0" stopTime="0.00" timeLoss="-2.21" rerouteNo="1" devices="tripinfo_LX_12" vType="car7@LX_12" speedFactor="1.30" vaporized=""/>
    <tripinfo id="RX_18" depart="4.00" departLane="002_001_3_0" departPos="8.10" departSpeed="11.18" departDelay="0.00" arrival="42.50" arrivalLane="002_002_4_0" arrivalPos="200.00" arrivalSpeed="11.18" duration="38.50" routeLength="400.93" waitingTime="0.00" waitingCount="0" stopTime="0.00" timeLoss="-2.56" rerouteNo="1" devices="tripinfo_RX_18" vType="car8@RX_18" speedFactor="1.26" vaporized=""/>
    <tripinfo id="SX_21" depart="5.00" departLane="002_001_2_1" departPos="8.10" departSpeed="11.18" departDelay="0.00" arrival="42.50" arrivalLane="002_000_2_1" arrivalPos="200.00" arrivalSpeed="11.18" duration="37.50" routeLength="419.10" waitingTime="0.00" waitingCount="0" stopTime="0.00" timeLoss="0.00" rerouteNo="1" devices="tripinfo_SX_21" vType="car8@SX_21" speedFactor="1.20" vaporized=""/>
    <tripinfo id="SX_11" depart="2.00" departLane="002_001_4_1" departPos="7.10" departSpeed="11.18" departDelay="0.00" arrival="42.70" arrivalLane="002_002_4_2" arrivalPos="200.00" arrivalSpeed="11.18" duration="40.70" routeLength="420.10" waitingTime="0.00" waitingCount="0" stopTime="0.00" timeLoss="-0.33" rerouteNo="1" devices="tripinfo_SX_11" vType="car7@SX_11" speedFactor="1.83" vaporized=""/>
    <tripinfo id="RX_26" depart="7.00" departLane="001_001_1_0" departPos="8.10" departSpeed="11.18" departDelay="0.00" arrival="43.00" arrivalLane="001_000_2_0" arrivalPos="200.00" arrivalSpeed="11.18" duration="36.00" routeLength="400.93" waitingTime="0.00" waitingCount="0" stopTime="0.00" timeLoss="-2.23" rerouteNo="1" devices="tripinfo_RX_26" vType="car8@RX_26" speedFactor="1.38" vaporized=""/>
    <tripinfo id="RX_25" depart="6.00" departLane="002_001_3_0" departPos="7.10" departSpeed="11.18" departDelay="0.00" arrival="43.60" arrivalLane="002_002_4_0" arrivalPos="200.00" arrivalSpeed="11.18" duration="37.60" routeLength="401.93" waitingTime="0.00" waitingCount="0" stopTime="0.00" timeLoss="-2.13" rerouteNo="1" devices="tripinfo_RX_25" vType="car7@RX_25" speedFactor="1.92" vaporized=""/>
    <tripinfo id="SX_19" depart="4.00" departLane="002_001_4_1" departPos="9.10" departSpeed="11.18" departDelay="0.00" arrival="43.70" arrivalLane="002_002_4_1" arrivalPos="200.00" arrivalSpeed="11.18" duration="39.70" routeLength="418.10" waitingTime="0.00" waitingCount="0" stopTime="0.00" timeLoss="-0.21" rerouteNo="1" devices="tripinfo_SX_19" vType="car9@SX_19" speedFactor="1.05" vaporized=""/>
    <tripinfo id="RX_31" depart="8.00" departLane="002_001_4_0" departPos="8.10" departSpeed="11.18" departDelay="0.00" arrival="44.00" arrivalLane="003_001_1_0" arrivalPos="200.00" arrivalSpeed="11.18" duration="36.00" routeLength="400.93" waitingTime="0.00" waitingCount="0" stopTime="0.00" timeLoss="-2.12" rerouteNo="1" devices="tripinfo_RX_31" vType="car8@RX_31" speedFactor="1.96" vaporized=""/>
    <tripinfo id="SX_23" depart="6.00" departLane="001_001_2_1" departPos="7.10" departSpeed="11.18" departDelay="0.00" arrival="44.50" arrivalLane="001_000_2_2" arrivalPos="200.00" arrivalSpeed="11.18" duration="38.50" routeLength="420.10" waitingTime="0.00" waitingCount="0" stopTime="0.00" timeLoss="-0.02" rerouteNo="1" devices="tripinfo_SX_23" vType="car7@SX_23" speedFactor="1.30" vaporized=""/>
    <tripinfo id="LX_17" depart="4.00" departLane="002_001_2_2" departPos="5.10" departSpeed="11.18" departDelay="0.00" arrival="44.90" arrivalLane="003_001_1_2" arrivalPos="200.00" arrivalSpeed="11.18" duration="40.90" routeLength="418.11" waitingTime="1.80" waitingCount="2" stopTime="0.00" timeLoss="-4448.04" rerouteNo="1" devices="tripinfo_LX_17" vType="car5@LX_17" speedFactor="1.91" vaporized=""/>
    <tripinfo id="LX_28" depart="8.00" departLane="001_001_1_2" departPos="7.10" departSpeed="11.18" departDelay="0.00" arrival="45.50" arrivalLane="001_002_4_2" arrivalPos="200.00" arrivalSpeed="11.18" duration="37.50" routeLength="416.12" waitingTime="0.00" waitingCount="0" stopTime="0.00" timeLoss="-2.12" rerouteNo="1" devices="tripinfo_LX_28" vType="car7@LX_28" speedFactor="1.88" vaporized=""/>
    <tripinfo id="LX_27" depart="7.00" departLane="002_001_2_2" departPos="5.10" departSpeed="11.18" departDelay="0.00" arrival="45.70" arrivalLane="003_001_1_2" arrivalPos="200.00" arrivalSpeed="11.18" duration="38.70" routeLength="418.11" waitingTime="0.00" waitingCount="0" stopTime="0.00" timeLoss="-2.02" rerouteNo="1" devices="tripinfo_LX_27" vType="car5@LX_27" speedFactor="1.43" vaporized=""/>
    <tripinfo id="RX_36" depart="10.00" departLane="001_001_2_0" departPos="6.10" departSpeed="11.18" departDelay="0.00" arrival="46.20" arrivalLane="000_001_3_0" arrivalPos="200.00" arrivalSpeed="11.18" duration="36.20" routeLength="402.93" waitingTime="0.00" waitingCount="0" stopTime="0.00" timeLoss="-2.12" rerouteNo="1" devices="tripinfo_RX_36" vType="car6@RX_36" speedFactor="1.82" vaporized=""/>
    <tripinfo id="RX_39" depart="10.00" departLane="002_001_3_0" departPos="5.10" departSpeed="11.18" departDelay="0.00" arrival="46.30" arrivalLane="002_002_4_0" arrivalPos="200.00" arrivalSpeed="11.18" duration="36.30" routeLength="403.93" waitingTime="0.00" waitingCount="0" stopTime="0.00" timeLoss="-2.61" rerouteNo="1" devices="tripinfo_RX_39" vType="car5@RX_39" speedFactor="1.00" vaporized=""/>
    <tripinfo id="LX_29" depart="8.00" departLane="001_001_4_2" departPos="7.10" departSpeed="11.18" departDelay="0.00" arrival="46.50" arrivalLane="000_001_3_2" arrivalPos="200.00" arrivalSpeed="11.18" duration="38.50" routeLength="416.11" waitingTime="0.00" waitingCount="0" stopTime="0.00" timeLoss="-2.16" rerouteNo="1" devices="tripinfo_LX_29" vType="car7@LX_29" speedFactor="1.00" vaporized=""/>
    <tripinfo id="LX_30" depart="8.50" departLane="002_001_2_2" departPos="9.10" departSpeed="11.18" departDelay="0.50" arrival="46.50" arrivalLane="003_001_1_2" arrivalPos="200.00" arrivalSpeed="11.18" duration="38.00" routeLength="414.11" waitingTime="0.00" waitingCount="0" stopTime="0.00" timeLoss="-2.10" rerouteNo="1" devices="tripinfo_LX_30" vType="car9@LX_30" speedFactor="1.17" vaporized=""/>
    <tripinfo id="RX_40" depart="11.30" departLane="001_001_2_0" departPos="7.10" departSpeed="11.18" departDelay="0.30" arrival="47.40" arrivalLane="000_001_3_0" arrivalPos="200.00" arrivalSpeed="11.18" duration="36.10" routeLength="401.93" waitingTime="0.00" waitingCount="0" stopTime="0.00" timeLoss="-2.21" rerouteNo="1" devices="tripinfo_RX_40" vType="car7@RX_40" speedFactor="1.40" vaporized=""/>
    <tripinfo id="SX_37" depart="10.00" departLane="001_001_4_1" departPos="6.10" departSpeed="11.18" departDelay="0.00" arrival="47.70" arrivalLane="001_002_4_1" arrivalPos="200.00" arrivalSpeed="11.18" duration="37.70" routeLength="421.10" waitingTime="0.00" waitingCount="0" stopTime="0.00" timeLoss="0.00" rerouteNo="1" devices="tripinfo_SX_37" vType="car6@SX_37" speedFactor="1.16" vaporized=""/>
    <tripinfo id="SX_32" depart="9.00" departLane="001_001_2_1" departPos="8.10" departSpeed="11.18" departDelay="0.00" arrival="48.00" arrivalLane="001_000_2_2" arrivalPos="200.00" arrivalSpeed="11.18" duration="39.00" routeLength="419.10" waitingTime="0.00" waitingCount="0" stopTime="0.00" timeLoss="-0.05" rerouteNo="1" devices="tripinfo_SX_32" vType="car8@SX_32" speedFactor="1.03" vaporized=""/>
    <tripinfo id="SX_34" depart="9.00" departLane="002_001_4_1" departPos="6.10" departSpeed="11.18" departDelay="0.00" arrival="48.60" arrivalLane="002_002_4_1" arrivalPos="200.00" arrivalSpeed="11.18" duration="39.60" routeLength="421.10" waitingTime="0.00" waitingCount="0" stopTime="0.00" timeLoss="-0.07" rerouteNo="1" devices="tripinfo_SX_34" vType="car6@SX_34" speedFactor="1.24" vaporized=""/>
    <tripinfo id="RX_45" depart="12.50" departLane="001_001_2_0" departPos="6.10" departSpeed="11.18" departDelay="0.50" arrival="48.70" arrivalLane="000_001_3_0" arrivalPos="200.00" arrivalSpeed="11.18" duration="36.20" routeLength="402.93" waitingTime="0.00" waitingCount="0" stopTime="0.00" timeLoss="-2.12" rerouteNo="1" devices="tripinfo_RX_45" vType="car6@RX_45" speedFactor="1.56" vaporized=""/>
    <tripinfo id="LX_35" depart="10.00" departLane="001_001_1_2" departPos="7.10" departSpeed="11.18" departDelay="0.00" arrival="49.20" arrivalLane="001_002_4_2" arrivalPos="200.00" arrivalSpeed="11.18" duration="39.20" routeLength="416.12" waitingTime="0.00" waitingCount="0" stopTime="0.00" timeLoss="-2.18" rerouteNo="1" devices="tripinfo_LX_35" vType="car7@LX_35" speedFactor="1.18" vaporized=""/>
    <tripinfo id="LX_38" depart="10.00" departLane="002_001_2_2" departPos="6.10" departSpeed="11.18" departDelay="0.00" arrival="49.60" arrivalLane="003_001_1_2" arrivalPos="200.00" arrivalSpeed="11.18" duration="39.60" routeLength="417.11" waitingTime="1.00" waitingCount="1" stopTime="0.00" timeLoss="-4510.15" rerouteNo="1" devices="tripinfo_LX_38" vType="car6@LX_38" speedFactor="1.10" vaporized=""/>
    <tripinfo id="LX_41" depart="11.00" departLane="001_001_4_2" departPos="6.10" departSpeed="11.18" departDelay="0.00" arrival="50.10" arrivalLane="000_001_3_2" arrivalPos="200.00" arrivalSpeed="11.18" duration="39.10" routeLength="417.11" waitingTime="0.00" waitingCount="0" stopTime="0.00" timeLoss="-2.16" rerouteNo="1" devices="tripinfo_LX_41" vType="car6@LX_41" speedFactor="1.22" vaporized=""/>
    <tripinfo id="SX_43" depart="11.00" departLane="002_001_4_1" departPos="9.10" departSpeed="11.18" departDelay="0.00" arrival="50.40" arrivalLane="002_002_4_2" arrivalPos="200.00" arrivalSpeed="11.18" duration="39.40" routeLength="418.10" waitingTime="1.00" waitingCount="1" stopTime="0.00" timeLoss="-4526.48" rerouteNo="1" devices="tripinfo_SX_43" vType="car9@SX_43" speedFactor="1.00" vaporized=""/>
    <tripinfo id="SX_47" depart="12.00" departLane="002_001_4_1" departPos="7.10" departSpeed="11.18" departDelay="0.00" arrival="51.30" arrivalLane="002_002_4_1" arrivalPos="200.00" arrivalSpeed="11.18" duration="39.30" routeLength="420.10" waitingTime="0.00" waitingCount="0" stopTime="0.00" timeLoss="-0.06" rerouteNo="1" devices="tripinfo_SX_47" vType="car7@SX_47" speedFactor="1.00" vaporized=""/>
    <tripinfo id="SX_48" depart="13.00" departLane="001_001_2_1" departPos="5.10" departSpeed="11.18" departDelay="0.00" arrival="52.00" arrivalLane="001_000_2_2" arrivalPos="200.00" arrivalSpeed="11.18" duration="39.00" routeLength="422.10" waitingTime="0.20" waitingCount="1" stopTime="0.00" timeLoss="-4174.32" rerouteNo="1" devices="tripinfo_SX_48" vType="car5@SX_48" speedFactor="1.32" vaporized=""/>
    <tripinfo id="LX_46" depart="12.00" departLane="002_001_3_2" departPos="6.10" departSpeed="11.18" departDelay="0.00" arrival="52.90" arrivalLane="002_000_2_2" arrivalPos="200.00" arrivalSpeed="11.18" duration="40.90" routeLength="417.12" waitingTime="2.40" waitingCount="1" stopTime="0.00" timeLoss="-4182.22" rerouteNo="1" devices="tripinfo_LX_46" vType="car6@LX_46" speedFactor="1.05" vaporized=""/>
    <tripinfo id="RX_65" depart="17.00" departLane="002_001_4_0" departPos="8.10" departSpeed="11.18" departDelay="0.00" arrival="53.00" arrivalLane="003_001_1_0" arrivalPos="200.00" arrivalSpeed="11.18" duration="36.00" routeLength="400.93" waitingTime="0.00" waitingCount="0" stopTime="0.00" timeLoss="-2.48" rerouteNo="1" devices="tripinfo_RX_65" vType="car8@RX_65" speedFactor="1.10" vaporized=""/>
    <tripinfo id="RX_61" depart="17.00" departLane="001_001_1_0" departPos="7.10" departSpeed="11.18" departDelay="0.00" arrival="53.10" arrivalLane="001_000_2_0" arrivalPos="200.00" arrivalSpeed="11.18" duration="36.10" routeLength="401.93" waitingTime="0.00" waitingCount="0" stopTime="0.00" timeLoss="-2.41" rerouteNo="1" devices="tripinfo_RX_61" vType="car7@RX_61" speedFactor="1.17" vaporized=""/>
    <tripinfo id="LX_50" depart="14.00" departLane="001_001_1_2" departPos="8.10" departSpeed="11.18" departDelay="0.00" arrival="53.20" arrivalLane="001_002_4_2" arrivalPos="200.00" arrivalSpeed="11.18" duration="39.20" routeLength="415.12" waitingTime="0.00" waitingCount="0" stopTime="0.00" timeLoss="-2.18" rerouteNo="1" devices="tripinfo_LX_50" vType="car8@LX_50" speedFactor="1.07" vaporized=""/>
    <tripinfo id="LX_42" depart="11.30" departLane="002_001_2_2" departPos="7.10" departSpeed="11.18" departDelay="0.30" arrival="53.30" arrivalLane="003_001_1_2" arrivalPos="200.00" arrivalSpeed="11.18" duration="42.00" routeLength="416.11" waitingTime="2.70" waitingCount="2" stopTime="0.00" timeLoss="-4490.96" rerouteNo="1" devices="tripinfo_LX_42" vType="car7@LX_42" speedFactor="1.23" vaporized=""/>
    <tripinfo id="RX_68" depart="18.00" departLane="002_001_3_0" departPos="7.10" departSpeed="11.18" departDelay="0.00" arrival="54.10" arrivalLane="002_002_4_0" arrivalPos="200.00" arrivalSpeed="11.18" duration="36.10" routeLength="401.93" waitingTime="0.00" waitingCount="0" stopTime="0.00" timeLoss="-2.23" rerouteNo="1" devices="tripinfo_RX_68" vType="car7@RX_68" speedFactor="1.38" vaporized=""/>
    <tripinfo id="RX_66" depart="18.30" departLane="001_001_1_0" departPos="7.10" departSpeed="11.18" departDelay="0.30" arrival="54.40" arrivalLane="001_000_2_0" arrivalPos="200.00" arrivalSpeed="11.18" duration="36.10" routeLength="401.93" waitingTime="0.00" waitingCount="0" stopTime="0.00" timeLoss="-2.12" rerouteNo="1" devices="tripinfo_RX_66" vType="car7@RX_66" speedFactor="1.97" vaporized=""/>
    <tripinfo id="SX_58" depart="16.00" departLane="001_001_2_1" departPos="9.10" departSpeed="11.18" departDelay="0.00" arrival="54.60" arrivalLane="001_000_2_1" arrivalPos="200.00" arrivalSpeed="11.18" duration="38.60" routeLength="418.10" waitingTime="0.00" waitingCount="0" stopTime="0.00" timeLoss="-0.06" rerouteNo="1" devices="tripinfo_SX_58" vType="car9@SX_58" speedFactor="1.43" vaporized=""/>
    <tripinfo id="SX_49" depart="13.50" departLane="002_001_4_1" departPos="9.10" departSpeed="11.18" departDelay="0.50" arrival="55.20" arrivalLane="002_002_4_2" arrivalPos="200.00" arrivalSpeed="11.18" duration="41.70" routeLength="418.10" waitingTime="2.80" waitingCount="1" stopTime="0.00" timeLoss="-4710.64" rerouteNo="1" devices="tripinfo_SX_49" vType="car9@SX_49" speedFactor="1.20" vaporized=""/>
    <tripinfo id="SX_70" depart="19.00" departLane="001_001_2_1" departPos="9.10" departSpeed="11.18" departDelay="0.00" arrival="56.40" arrivalLane="001_000_2_1" arrivalPos="200.00" arrivalSpeed="11.18" duration="37.40" routeLength="418.10" waitingTime="0.00" waitingCount="0" stopTime="0.00" timeLoss="0.00" rerouteNo="1" devices="tripinfo_SX_70" vType="car9@SX_70" speedFactor="1.88" vaporized=""/>
    <tripinfo id="LX_52" depart="14.00" departLane="002_001_3_2" departPos="8.10" departSpeed="11.18" departDelay="0.00" arrival="56.70" arrivalLane="002_000_2_2" arrivalPos="200.00" arrivalSpeed="11.18" duration="42.70" routeLength="415.12" waitingTime="3.60" waitingCount="2" stopTime="0.00" timeLoss="-4697.05" rerouteNo="1" devices="tripinfo_LX_52" vType="car8@LX_52" speedFactor="1.34" vaporized=""/>
    <tripinfo id="SX_62" depart="17.30" departLane="001_001_2_1" departPos="7.10" departSpeed="11.18" departDelay="0.30" arrival="56.70" arrivalLane="001_000_2_2" arrivalPos="200.00" arrivalSpeed="11.18" duration="39.40" routeLength="420.10" waitingTime="0.00" waitingCount="0" stopTime="0.00" timeLoss="0.14" rerouteNo="1" devices="tripinfo_SX_62" vType="car7@SX_62" speedFactor="1.92" vaporized=""/>
    <tripinfo id="RX_75" depart="22.00" departLane="001_001_1_0" departPos="8.10" departSpeed="11.18" departDelay="0.00" arrival="58.00" arrivalLane="001_000_2_0" arrivalPos="200.00" arrivalSpeed="11.18" duration="36.00" routeLength="400.93" waitingTime="0.00" waitingCount="0" stopTime="0.00" timeLoss="-2.61" rerouteNo="1" devices="tripinfo_RX_75" vType="car8@RX_75" speedFactor="1.00" vaporized=""/>
    <tripinfo id="LX_69" depart="19.00" departLane="001_001_1_2" departPos="5.10" departSpeed="11.18" departDelay="0.00" arrival="58.20" arrivalLane="001_002_4_2" arrivalPos="200.00" arrivalSpeed="11.18" duration="39.20" routeLength="418.12" waitingTime="0.00" waitingCount="0" stopTime="0.00" timeLoss="-2.17" rerouteNo="1" devices="tripinfo_LX_69" vType="car5@LX_69" speedFactor="1.43" vaporized=""/>
    <tripinfo id="LX_67" depart="18.00" departLane="001_001_4_2" departPos="8.10" departSpeed="11.18" departDelay="0.00" arrival="59.20" arrivalLane="000_001_3_2" arrivalPos="200.00" arrivalSpeed="11.18" duration="41.20" routeLength="415.11" waitingTime="0.00" waitingCount="0" stopTime="0.00" timeLoss="-3.10" rerouteNo="1" devices="tripinfo_LX_67" vType="car8@LX_67" speedFactor="1.65" vaporized=""/>
    <tripinfo id="LR_8" depart="2.00" departLane="001_001_2_2" departPos="9.10" departSpeed="11.18" departDelay="0.00" arrival="60.00" arrivalLane="002_000_2_2" arrivalPos="200.00" arrivalSpeed="11.18" duration="58.00" routeLength="633.46" waitingTime="0.00" waitingCount="0" stopTime="0.00" timeLoss="-2.17" rerouteNo="2" devices="tripinfo_LR_8" vType="car9@LR_8" speedFactor="1.26" vaporized=""/>
    <tripinfo id="RX_84" depart="24.00" departLane="002_001_3_0" departPos="8.10" departSpeed="11.18" departDelay="0.00" arrival="60.00" arrivalLane="002_002_4_0" arrivalPos="200.00" arrivalSpeed="11.18" duration="36.00" routeLength="400.93" waitingTime="0.00" waitingCount="0" stopTime="0.00" timeLoss="-2.61" rerouteNo="1" devices="tripinfo_RX_84" vType="car8@RX_84" speedFactor="1.00" vaporized=""/>
    <tripinfo id="RX_82" depart="24.00" departLane="001_001_2_0" departPos="5.10" departSpeed="11.18" departDelay="0.00" arrival="60.30" arrivalLane="000_001_3_0" arrivalPos="200.00" arrivalSpeed="11.18" duration="36.30" routeLength="403.93" waitingTime="0.00" waitingCount="0" stopTime="0.00" timeLoss="-2.56" rerouteNo="1" devices="tripinfo_RX_82" vType="car5@RX_82" speedFactor="1.03" vaporized=""/>
    <tripinfo id="SX_73" depart="21.00" departLane="001_001_4_1" departPos="7.10" departSpeed="11.18" departDelay="0.00" arrival="60.40" arrivalLane="001_002_4_2" arrivalPos="200.00" arrivalSpeed="11.18" duration="39.40" routeLength="420.10" waitingTime="0.00" waitingCount="0" stopTime="0.00" timeLoss="0.08" rerouteNo="1" devices="tripinfo_SX_73" vType="car7@SX_73" speedFactor="1.34" vaporized=""/>
    <tripinfo id="RL_13" depart="3.00" departLane="002_001_2_0" departPos="9.10" departSpeed="11.18" departDelay="0.00" arrival="61.00" arrivalLane="001_000_2_2" arrivalPos="200.00" arrivalSpeed="11.18" duration="58.00" routeLength="623.15" waitingTime="0.00" waitingCount="0" stopTime="0.00" timeLoss="-2.25" rerouteNo="2" devices="tripinfo_RL_13" vType="car9@RL_13" speedFactor="1.46" vaporized=""/>
    <tripinfo id="RX_86" depart="25.00" departLane="001_001_1_0" departPos="8.10" departSpeed="11.18" departDelay="0.00" arrival="61.00" arrivalLane="001_000_2_0" arrivalPos="200.00" arrivalSpeed="11.18" duration="36.00" routeLength="400.93" waitingTime="0.00" waitingCount="0" stopTime="0.00" timeLoss="-2.34" rerouteNo="1" devices="tripinfo_RX_86" vType="car8@RX_86" speedFactor="1.23" vaporized=""/>
    <tripinfo id="SX_76" depart="22.00" departLane="001_001_2_1" departPos="9.10" departSpeed="11.18" departDelay="0.00" arrival="61.20" arrivalLane="001_000_2_1" arrivalPos="200.00" arrivalSpeed="11.18" duration="39.20" routeLength="418.10" waitingTime="0.00" waitingCount="0" stopTime="0.00" timeLoss="-0.08" rerouteNo="1" devices="tripinfo_SX_76" vType="car9@SX_76" speedFactor="1.17" vaporized=""/>
    <tripinfo id="SX_78" depart="22.00" departLane="002_001_4_1" departPos="7.10" departSpeed="11.18" departDelay="0.00" arrival="61.70" arrivalLane="002_002_4_1" arrivalPos="200.00" arrivalSpeed="11.18" duration="39.70" routeLength="420.10" waitingTime="0.00" waitingCount="0" stopTime="0.00" timeLoss="-0.15" rerouteNo="1" devices="tripinfo_SX_78" vType="car7@SX_78" speedFactor="1.09" vaporized=""/>
    <tripinfo id="LR_22" depart="5.00" departLane="002_001_4_2" departPos="7.10" departSpeed="11.18" departDelay="0.00" arrival="62.40" arrivalLane="001_002_4_0" arrivalPos="200.00" arrivalSpeed="11.18" duration="57.40" routeLength="625.14" waitingTime="0.00" waitingCount="0" stopTime="0.00" timeLoss="-2.57" rerouteNo="2" devices="tripinfo_LR_22" vType="car7@LR_22" speedFactor="1.00" vaporized=""/>
    <tripinfo id="RX_90" depart="26.30" departLane="001_001_1_0" departPos="7.10" departSpeed="11.18" departDelay="0.30" arrival="62.40" arrivalLane="001_000_2_0" arrivalPos="200.00" arrivalSpeed="11.18" duration="36.10" routeLength="401.93" waitingTime="0.00" waitingCount="0" stopTime="0.00" timeLoss="-2.27" rerouteNo="1" devices="tripinfo_RX_90" vType="car7@RX_90" speedFactor="1.32" vaporized=""/>
    <tripinfo id="RX_98" depart="27.00" departLane="002_001_4_0" departPos="8.10" departSpeed="11.18" departDelay="0.00" arrival="63.00" arrivalLane="003_001_1_0" arrivalPos="200.00" arrivalSpeed="11.18" duration="36.00" routeLength="400.93" waitingTime="0.00" waitingCount="0" stopTime="0.00" timeLoss="-2.12" rerouteNo="1" devices="tripinfo_RX_98" vType="car8@RX_98" speedFactor="1.82" vaporized=""/>
    <tripinfo id="SX_89" depart="25.00" departLane="002_001_4_1" departPos="5.10" departSpeed="11.18" departDelay="0.00" arrival="63.10" arrivalLane="002_002_4_1" arrivalPos="200.00" arrivalSpeed="11.18" duration="38.10" routeLength="422.10" waitingTime="0.00" waitingCount="0" stopTime="0.00" timeLoss="-0.00" rerouteNo="1" devices="tripinfo_SX_89" vType="car5@SX_89" speedFactor="1.08" vaporized=""/>
    <tripinfo id="SX_77" depart="22.00" departLane="002_001_2_1" departPos="5.10" departSpeed="11.18" departDelay="0.00" arrival="63.20" arrivalLane="002_000_2_2" arrivalPos="200.00" arrivalSpeed="11.18" duration="41.20" routeLength="422.10" waitingTime="0.00" waitingCount="0" stopTime="0.00" timeLoss="-0.36" rerouteNo="1" devices="tripinfo_SX_77" vType="car5@SX_77" speedFactor="1.99" vaporized=""/>
    <tripinfo id="SX_74" depart="21.00" departLane="002_001_4_1" departPos="9.10" departSpeed="11.18" departDelay="0.00" arrival="63.40" arrivalLane="002_002_4_2" arrivalPos="200.00" arrivalSpeed="11.18" duration="42.40" routeLength="418.10" waitingTime="2.80" waitingCount="2" stopTime="0.00" timeLoss="4.85" rerouteNo="1" devices="tripinfo_SX_74" vType="car9@SX_74" speedFactor="1.65" vaporized=""/>
    <tripinfo id="RS_24" depart="6.00" departLane="001_001_4_0" departPos="6.10" departSpeed="11.18" departDelay="0.00" arrival="64.70" arrivalLane="003_001_1_2" arrivalPos="200.00" arrivalSpeed="11.18" duration="58.70" routeLength="630.13" waitingTime="0.00" waitingCount="0" stopTime="0.00" timeLoss="-0.58" rerouteNo="2" devices="tripinfo_RS_24" vType="car6@RS_24" speedFactor="1.00" vaporized=""/>
    <tripinfo id="RS_16" depart="4.00" departLane="001_001_4_0" departPos="9.10" departSpeed="11.18" departDelay="0.00" arrival="65.00" arrivalLane="003_001_1_1" arrivalPos="200.00" arrivalSpeed="11.18" duration="61.00" routeLength="627.13" waitingTime="0.00" waitingCount="0" stopTime="0.00" timeLoss="-1.29" rerouteNo="2" devices="tripinfo_RS_16" vType="car9@RS_16" speedFactor="1.00" vaporized=""/>