<?xml version="1.0" encoding="UTF-8"?>

<!-- generated on Fri Jan 15 13:54:38 2021 by Eclipse SUMO sumo Version 1.8.0
<configuration xmlns:xsi="http://www.w3.org/2001/XMLSchema-instance" xsi:noNamespaceSchemaLocation="http://sumo.dlr.de/xsd/sumoConfiguration.xsd">

    <input>
        <net-file value="data/lane3_tl1.net.xml"/>
        <route-files value="data/icacc+.rou.xml"/>
        <additional-files value="data/icacc+.det.xml"/>
    </input>

    <output>
        <tripinfo-output value="tripinfo.xml"/>
    </output>

    <time>
        <begin value="0"/>
        <step-length value="0.1"/>
    </time>

    <processing>
        <collision.mingap-factor value="0"/>
        <time-to-teleport value="-1"/>
        <lanechange.duration value="0.5"/>
    </processing>

    <report>
        <verbose value="true"/>
        <no-step-log value="true"/>
    </report>

    <traci_server>
        <remote-port value="60231"/>
    </traci_server>

    <gui_only>
        <start value="true"/>
        <tracker-interval value="0.1"/>
    </gui_only>

</configuration>
-->

<tripinfos xmlns:xsi="http://www.w3.org/2001/XMLSchema-instance" xsi:noNamespaceSchemaLocation="http://sumo.dlr.de/xsd/tripinfo_file.xsd">
    <tripinfo id="S_0" depart="8.00" departLane="4_1" departPos="8.10" departSpeed="0.00" departDelay="0.00" arrival="45.10" arrivalLane="-2_0" arrivalPos="200.00" arrivalSpeed="11.18" duration="37.10" routeLength="414.30" waitingTime="0.00" waitingCount="0" stopTime="0.00" timeLoss="0.01" rerouteNo="0" devices="tripinfo_S_0" vType="car8" speedFactor="1.06" vaporized=""/>
    <tripinfo id="S_2" depart="12.00" departLane="2_1" departPos="7.10" departSpeed="0.00" departDelay="0.00" arrival="49.20" arrivalLane="-4_0" arrivalPos="200.00" arrivalSpeed="11.18" duration="37.20" routeLength="415.30" waitingTime="0.00" waitingCount="0" stopTime="0.00" timeLoss="0.01" rerouteNo="0" devices="tripinfo_S_2" vType="car7" speedFactor="1.01" vaporized=""/>
    <tripinfo id="S_4" depart="16.00" departLane="4_1" departPos="7.10" departSpeed="0.00" departDelay="0.00" arrival="53.20" arrivalLane="-2_0" arrivalPos="200.00" arrivalSpeed="11.18" duration="37.20" routeLength="415.30" waitingTime="0.00" waitingCount="0" stopTime="0.00" timeLoss="0.01" rerouteNo="0" devices="tripinfo_S_4" vType="car7" speedFactor="1.03" vaporized=""/>
    <tripinfo id="S_5" depart="17.00" departLane="2_1" departPos="6.10" departSpeed="0.00" departDelay="0.00" arrival="54.60" arrivalLane="-4_0" arrivalPos="200.00" arrivalSpeed="11.18" duration="37.60" routeLength="416.30" waitingTime="0.00" waitingCount="0" stopTime="0.00" timeLoss="0.36" rerouteNo="0" devices="tripinfo_S_5" vType="car6" speedFactor="0.83" vaporized=""/>
    <tripinfo id="S_3" depart="15.00" departLane="3_1" departPos="8.10" departSpeed="0.00" departDelay="0.00" arrival="64.90" arrivalLane="-1_0" arrivalPos="200.00" arrivalSpeed="11.18" duration="49.90" routeLength="414.30" waitingTime="12.80" waitingCount="1" stopTime="0.00" timeLoss="12.84" rerouteNo="0" devices="tripinfo_S_3" vType="car8" speedFactor="1.08" vaporized=""/>
    <tripinfo id="S_6" depart="22.00" departLane="3_1" departPos="9.10" departSpeed="0.00" departDelay="0.00" arrival="64.90" arrivalLane="-1_1" arrivalPos="200.00" arrivalSpeed="11.18" duration="42.90" routeLength="413.30" waitingTime="5.00" waitingCount="1" stopTime="0.00" timeLoss="5.93" rerouteNo="0" devices="tripinfo_S_6" vType="car9" speedFactor="1.05" vaporized=""/>
    <tripinfo id="S_9" depart="27.00" departLane="1_1" departPos="5.10" departSpeed="0.00" departDelay="0.00" arrival="64.90" arrivalLane="-3_0" arrivalPos="200.00" arrivalSpeed="11.18" duration="37.90" routeLength="417.30" waitingTime="0.50" waitingCount="1" stopTime="0.00" timeLoss="0.57" rerouteNo="0" devices="tripinfo_S_9" vType="car5" speedFactor="0.86" vaporized=""/>
    <tripinfo id="R_1" depart="11.00" departLane="1_0" departPos="9.10" departSpeed="0.00" departDelay="0.00" arrival="66.60" arrivalLane="-4_0" arrivalPos="200.00" arrivalSpeed="11.18" duration="55.60" routeLength="396.06" waitingTime="16.80" waitingCount="1" stopTime="0.00" timeLoss="19.52" rerouteNo="0" devices="tripinfo_R_1" vType="car9" speedFactor="0.94" vaporized=""/>
    <tripinfo id="R_8" depart="26.00" departLane="1_0" departPos="9.10" departSpeed="0.00" departDelay="0.00" arrival="69.60" arrivalLane="-4_0" arrivalPos="200.00" arrivalSpeed="11.18" duration="43.60" routeLength="396.06" waitingTime="0.00" waitingCount="0" stopTime="0.00" timeLoss="7.50" rerouteNo="0" devices="tripinfo_R_8" vType="car9" speedFactor="0.94" vaporized=""/>
    <tripinfo id="R_13" depart="32.00" departLane="3_0" departPos="5.10" departSpeed="0.00" departDelay="0.00" arrival="70.90" arrivalLane="-2_0" arrivalPos="200.00" arrivalSpeed="11.18" duration="38.90" routeLength="400.06" waitingTime="0.00" waitingCount="0" stopTime="0.00" timeLoss="2.62" rerouteNo="0" devices="tripinfo_R_13" vType="car5" speedFactor="1.12" vaporized=""/>
    <tripinfo id="L_14" depart="37.00" departLane="1_2" departPos="8.10" departSpeed="0.00" departDelay="0.00" arrival="74.30" arrivalLane="-2_1" arrivalPos="200.00" arrivalSpeed="11.18" duration="37.30" routeLength="412.55" waitingTime="0.00" waitingCount="0" stopTime="0.00" timeLoss="0.03" rerouteNo="0" devices="tripinfo_L_14" vType="car8" speedFactor="0.99" vaporized=""/>
    <tripinfo id="L_15" depart="39.00" departLane="3_2" departPos="5.10" departSpeed="0.00" departDelay="0.00" arrival="76.70" arrivalLane="-4_1" arrivalPos="200.00" arrivalSpeed="11.18" duration="37.70" routeLength="415.55" waitingTime="0.00" waitingCount="0" stopTime="0.00" timeLoss="0.03" rerouteNo="0" devices="tripinfo_L_15" vType="car5" speedFactor="0.93" vaporized=""/>
    <tripinfo id="L_16" depart="43.00" departLane="1_2" departPos="9.10" departSpeed="0.00" departDelay="0.00" arrival="84.80" arrivalLane="-2_1" arrivalPos="200.00" arrivalSpeed="11.18" duration="41.80" routeLength="411.55" waitingTime="1.80" waitingCount="1" stopTime="0.00" timeLoss="4.29" rerouteNo="0" devices="tripinfo_L_16" vType="car9" speedFactor="0.88" vaporized=""/>
    <tripinfo id="R_18" depart="46.00" departLane="3_0" departPos="6.10" departSpeed="0.00" departDelay="0.00" arrival="85.90" arrivalLane="-2_0" arrivalPos="200.00" arrivalSpeed="11.18" duration="39.90" routeLength="399.06" waitingTime="0.00" waitingCount="0" stopTime="0.00" timeLoss="3.56" rerouteNo="0" devices="tripinfo_R_18" vType="car6" speedFactor="0.94" vaporized=""/>
    <tripinfo id="R_21" depart="52.00" departLane="1_0" departPos="9.10" departSpeed="0.00" departDelay="0.00" arrival="90.40" arrivalLane="-4_0" arrivalPos="200.00" arrivalSpeed="11.18" duration="38.40" routeLength="396.06" waitingTime="0.00" waitingCount="0" stopTime="0.00" timeLoss="2.48" rerouteNo="0" devices="tripinfo_R_21" vType="car9" speedFactor="1.01" vaporized=""/>
    <tripinfo id="S_25" depart="61.00" departLane="1_1" departPos="6.10" departSpeed="0.00" departDelay="0.00" arrival="98.30" arrivalLane="-3_0" arrivalPos="200.00" arrivalSpeed="11.18" duration="37.30" routeLength="416.30" waitingTime="0.00" waitingCount="0" stopTime="0.00" timeLoss="0.01" rerouteNo="0" devices="tripinfo_S_25" vType="car6" speedFactor="0.87" vaporized=""/>
    <tripinfo id="S_28" depart="64.00" departLane="3_1" departPos="6.10" departSpeed="0.00" departDelay="0.00" arrival="102.00" arrivalLane="-1_0" arrivalPos="200.00" arrivalSpeed="11.18" duration="38.00" routeLength="416.30" waitingTime="0.00" waitingCount="0" stopTime="0.00" timeLoss="0.74" rerouteNo="0" devices="tripinfo_S_28" vType="car6" speedFactor="1.13" vaporized=""/>
    <tripinfo id="L_26" depart="62.00" departLane="1_2" departPos="9.10" departSpeed="0.00" departDelay="0.00" arrival="102.60" arrivalLane="-2_1" arrivalPos="200.00" arrivalSpeed="11.18" duration="40.60" routeLength="411.55" waitingTime="1.00" waitingCount="1" stopTime="0.00" timeLoss="3.26" rerouteNo="0" devices="tripinfo_L_26" vType="car9" speedFactor="0.92" vaporized=""/>
    <tripinfo id="S_12" depart="31.00" departLane="2_1" departPos="5.10" departSpeed="0.00" departDelay="0.00" arrival="109.90" arrivalLane="-4_1" arrivalPos="200.00" arrivalSpeed="11.18" duration="78.90" routeLength="417.30" waitingTime="38.70" waitingCount="1" stopTime="0.00" timeLoss="41.57" rerouteNo="0" devices="tripinfo_S_12" vType="car5" speedFactor="1.05" vaporized=""/>
    <tripinfo id="S_22" depart="54.00" departLane="4_1" departPos="8.10" departSpeed="0.00" departDelay="0.00" arrival="109.90" arrivalLane="-2_0" arrivalPos="200.00" arrivalSpeed="11.18" duration="55.90" routeLength="414.30" waitingTime="17.80" waitingCount="1" stopTime="0.00" timeLoss="18.84" rerouteNo="0" devices="tripinfo_S_22" vType="car8" speedFactor="0.98" vaporized=""/>
    <tripinfo id="S_11" depart="30.00" departLane="2_1" departPos="5.10" departSpeed="0.00" departDelay="0.00" arrival="110.40" arrivalLane="-4_0" arrivalPos="200.00" arrivalSpeed="11.18" duration="80.40" routeLength="417.30" waitingTime="42.50" waitingCount="1" stopTime="0.00" timeLoss="43.00" rerouteNo="0" devices="tripinfo_S_11" vType="car5" speedFactor="1.03" vaporized=""/>
    <tripinfo id="L_30" depart="70.00" departLane="2_2" departPos="5.10" departSpeed="0.00" departDelay="0.00" arrival="110.60" arrivalLane="-3_1" arrivalPos="200.00" arrivalSpeed="11.18" duration="40.60" routeLength="415.55" waitingTime="3.30" waitingCount="2" stopTime="0.00" timeLoss="3.40" rerouteNo="0" devices="tripinfo_L_30" vType="car5" speedFactor="1.18" vaporized=""/>
    <tripinfo id="R_7" depart="23.00" departLane="4_0" departPos="7.10" departSpeed="0.00" departDelay="0.00" arrival="111.60" arrivalLane="-3_0" arrivalPos="200.00" arrivalSpeed="11.18" duration="88.60" routeLength="398.06" waitingTime="47.30" waitingCount="1" stopTime="0.00" timeLoss="52.28" rerouteNo="0" devices="tripinfo_R_7" vType="car7" speedFactor="0.89" vaporized=""/>
    <tripinfo id="S_29" depart="68.00" departLane="2_1" departPos="7.10" departSpeed="0.00" departDelay="0.00" arrival="111.60" arrivalLane="-4_1" arrivalPos="200.00" arrivalSpeed="11.18" duration="43.60" routeLength="415.30" waitingTime="0.00" waitingCount="0" stopTime="0.00" timeLoss="6.37" rerouteNo="0" devices="tripinfo_S_29" vType="car7" speedFactor="0.93" vaporized=""/>
    <tripinfo id="R_17" depart="46.00" departLane="2_0" departPos="8.10" departSpeed="0.00" departDelay="0.00" arrival="112.60" arrivalLane="-1_0" arrivalPos="200.00" arrivalSpeed="11.18" duration="66.60" routeLength="397.06" waitingTime="19.70" waitingCount="12" stopTime="0.00" timeLoss="30.46" rerouteNo="0" devices="tripinfo_R_17" vType="car8" speedFactor="0.94" vaporized=""/>
    <tripinfo id="R_10" depart="28.00" departLane="4_0" departPos="5.10" departSpeed="0.00" departDelay="0.00" arrival="113.50" arrivalLane="-3_0" arrivalPos="200.00" arrivalSpeed="11.18" duration="85.50" routeLength="400.06" waitingTime="37.60" waitingCount="13" stopTime="0.00" timeLoss="49.24" rerouteNo="0" devices="tripinfo_R_10" vType="car5" speedFactor="1.09" vaporized=""/>
    <tripinfo id="R_19" depart="47.00" departLane="4_0" departPos="5.10" departSpeed="0.00" departDelay="0.00" arrival="115.30" arrivalLane="-3_0" arrivalPos="200.00" arrivalSpeed="11.18" duration="68.30" routeLength="400.06" waitingTime="19.70" waitingCount="16" stopTime="0.00" timeLoss="32.10" rerouteNo="0" devices="tripinfo_R_19" vType="car5" speedFactor="1.16" vaporized=""/>
    <tripinfo id="R_20" depart="50.00" departLane="2_0" departPos="6.10" departSpeed="0.00" departDelay="0.00" arrival="115.40" arrivalLane="-1_0" arrivalPos="200.00" arrivalSpeed="11.18" duration="65.40" routeLength="399.06" waitingTime="16.10" waitingCount="13" stopTime="0.00" timeLoss="29.13" rerouteNo="0" devices="tripinfo_R_20" vType="car6" speedFactor="1.02" vaporized=""/>
    <tripinfo id="R_23" depart="57.00" departLane="2_0" departPos="6.10" departSpeed="0.00" departDelay="0.00" arrival="118.30" arrivalLane="-1_0" arrivalPos="200.00" arrivalSpeed="11.18" duration="61.30" routeLength="399.06" waitingTime="10.70" waitingCount="15" stopTime="0.00" timeLoss="24.91" rerouteNo="0" devices="tripinfo_R_23" vType="car6" speedFactor="0.89" vaporized=""/>
    <tripinfo id="S_33" depart="76.00" departLane="2_1" departPos="6.10" departSpeed="0.00" departDelay="0.00" arrival="118.60" arrivalLane="-4_0" arrivalPos="200.00" arrivalSpeed="11.18" duration="42.60" routeLength="416.30" waitingTime="0.00" waitingCount="0" stopTime="0.00" timeLoss="5.37" rerouteNo="0" devices="tripinfo_S_33" vType="car6" speedFactor="1.17" vaporized=""/>
    <tripinfo id="L_24" depart="58.00" departLane="4_2" departPos="9.10" departSpeed="0.00" departDelay="0.00" arrival="119.40" arrivalLane="-1_1" arrivalPos="200.00" arrivalSpeed="11.18" duration="61.40" routeLength="411.55" waitingTime="23.60" waitingCount="2" stopTime="0.00" timeLoss="23.82" rerouteNo="0" devices="tripinfo_L_24" vType="car9" speedFactor="0.83" vaporized=""/>
    <tripinfo id="R_27" depart="62.00" departLane="2_0" departPos="7.10" departSpeed="0.00" departDelay="0.00" arrival="120.80" arrivalLane="-1_0" arrivalPos="200.00" arrivalSpeed="11.18" duration="58.80" routeLength="398.06" waitingTime="6.80" waitingCount="17" stopTime="0.00" timeLoss="22.50" rerouteNo="0" devices="tripinfo_R_27" vType="car7" speedFactor="0.95" vaporized=""/>
    <tripinfo id="R_31" depart="71.00" departLane="2_0" departPos="9.10" departSpeed="0.00" departDelay="0.00" arrival="122.70" arrivalLane="-1_0" arrivalPos="200.00" arrivalSpeed="11.18" duration="51.70" routeLength="396.06" waitingTime="0.70" waitingCount="7" stopTime="0.00" timeLoss="15.77" rerouteNo="0" devices="tripinfo_R_31" vType="car9" speedFactor="1.15" vaporized=""/>
    <tripinfo id="S_36" depart="84.00" departLane="4_1" departPos="6.10" departSpeed="0.00" departDelay="0.00" arrival="123.70" arrivalLane="-2_0" arrivalPos="200.00" arrivalSpeed="11.18" duration="39.70" routeLength="416.30" waitingTime="0.00" waitingCount="0" stopTime="0.00" timeLoss="2.39" rerouteNo="0" devices="tripinfo_S_36" vType="car6" speedFactor="0.97" vaporized=""/>
    <tripinfo id="S_41" depart="97.00" departLane="4_1" departPos="8.10" departSpeed="0.00" departDelay="0.00" arrival="136.50" arrivalLane="-2_0" arrivalPos="200.00" arrivalSpeed="11.18" duration="39.50" routeLength="414.30" waitingTime="0.00" waitingCount="0" stopTime="0.00" timeLoss="2.40" rerouteNo="0" devices="tripinfo_S_41" vType="car8" speedFactor="0.96" vaporized=""/>
    <tripinfo id="L_43" depart="98.00" departLane="4_2" departPos="9.10" departSpeed="0.00" departDelay="0.00" arrival="137.10" arrivalLane="-1_1" arrivalPos="200.00" arrivalSpeed="11.18" duration="39.10" routeLength="411.55" waitingTime="0.00" waitingCount="0" stopTime="0.00" timeLoss="2.00" rerouteNo="0" devices="tripinfo_L_43" vType="car9" speedFactor="1.04" vaporized=""/>
    <tripinfo id="R_42" depart="98.00" departLane="2_0" departPos="8.10" departSpeed="0.00" departDelay="0.00" arrival="137.50" arrivalLane="-1_0" arrivalPos="200.00" arrivalSpeed="11.18" duration="39.50" routeLength="397.06" waitingTime="0.00" waitingCount="0" stopTime="0.00" timeLoss="3.46" rerouteNo="0" devices="tripinfo_R_42" vType="car8" speedFactor="1.09" vaporized=""/>
    <tripinfo id="S_35" depart="82.00" departLane="1_1" departPos="6.10" departSpeed="0.00" departDelay="0.00" arrival="154.90" arrivalLane="-3_0" arrivalPos="200.00" arrivalSpeed="11.18" duration="72.90" routeLength="416.30" waitingTime="35.60" waitingCount="1" stopTime="0.00" timeLoss="35.66" rerouteNo="0" devices="tripinfo_S_35" vType="car6" speedFactor="1.02" vaporized=""/>
    <tripinfo id="S_37" depart="85.00" departLane="1_1" departPos="5.10" departSpeed="0.00" departDelay="0.00" arrival="154.90" arrivalLane="-3_1" arrivalPos="200.00" arrivalSpeed="11.18" duration="69.90" routeLength="417.30" waitingTime="30.10" waitingCount="1" stopTime="0.00" timeLoss="32.57" rerouteNo="0" devices="tripinfo_S_37" vType="car5" speedFactor="1.18" vaporized=""/>
    <tripinfo id="R_39" depart="92.00" departLane="1_0" departPos="6.10" departSpeed="0.00" departDelay="0.00" arrival="155.40" arrivalLane="-4_0" arrivalPos="200.00" arrivalSpeed="11.18" duration="63.40" routeLength="399.06" waitingTime="18.40" waitingCount="13" stopTime="0.00" timeLoss="26.95" rerouteNo="0" devices="tripinfo_R_39" vType="car6" speedFactor="0.90" vaporized=""/>
    <tripinfo id="R_38" depart="87.00" departLane="3_0" departPos="5.10" departSpeed="0.00" departDelay="0.00" arrival="156.40" arrivalLane="-2_0" arrivalPos="200.00" arrivalSpeed="11.18" duration="69.40" routeLength="400.06" waitingTime="23.40" waitingCount="13" stopTime="0.00" timeLoss="33.12" rerouteNo="0" devices="tripinfo_R_38" vType="car5" speedFactor="1.10" vaporized=""/>
    <tripinfo id="S_32" depart="74.00" departLane="3_1" departPos="5.10" departSpeed="0.00" departDelay="0.00" arrival="156.50" arrivalLane="-1_0" arrivalPos="200.00" arrivalSpeed="11.18" duration="82.50" routeLength="417.30" waitingTime="43.50" waitingCount="1" stopTime="0.00" timeLoss="45.13" rerouteNo="0" devices="tripinfo_S_32" vType="car5" speedFactor="1.01" vaporized=""/>
    <tripinfo id="S_40" depart="97.00" departLane="1_1" departPos="6.10" departSpeed="0.00" departDelay="0.00" arrival="158.00" arrivalLane="-3_0" arrivalPos="200.00" arrivalSpeed="11.18" duration="61.00" routeLength="416.30" waitingTime="14.50" waitingCount="12" stopTime="0.00" timeLoss="23.68" rerouteNo="0" devices="tripinfo_S_40" vType="car6" speedFactor="1.03" vaporized=""/>
    <tripinfo id="L_46" depart="109.00" departLane="1_2" departPos="9.10" departSpeed="0.00" departDelay="0.00" arrival="158.30" arrivalLane="-2_1" arrivalPos="200.00" arrivalSpeed="11.18" duration="49.30" routeLength="411.55" waitingTime="12.00" waitingCount="2" stopTime="0.00" timeLoss="12.17" rerouteNo="0" devices="tripinfo_L_46" vType="car9" speedFactor="1.00" vaporized=""/>
    <tripinfo id="R_44" depart="107.00" departLane="1_0" departPos="5.10" departSpeed="0.00" departDelay="0.00" arrival="158.90" arrivalLane="-4_0" arrivalPos="200.00" arrivalSpeed="11.18" duration="51.90" routeLength="400.06" waitingTime="4.30" waitingCount="12" stopTime="0.00" timeLoss="15.51" rerouteNo="0" devices="tripinfo_R_44" vType="car5" speedFactor="1.04" vaporized=""/>
    <tripinfo id="R_45" depart="107.00" departLane="3_0" departPos="7.10" departSpeed="0.00" departDelay="0.00" arrival="159.90" arrivalLane="-2_0" arrivalPos="200.00" arrivalSpeed="11.18" duration="52.90" routeLength="398.06" waitingTime="4.70" waitingCount="16" stopTime="0.00" timeLoss="16.78" rerouteNo="0" devices="tripinfo_R_45" vType="car7" speedFactor="1.09" vaporized=""/>
    <tripinfo id="L_48" depart="112.00" departLane="1_2" departPos="8.10" departSpeed="0.00" departDelay="0.00" arrival="161.50" arrivalLane="-2_1" arrivalPos="200.00" arrivalSpeed="11.18" duration="49.50" routeLength="412.55" waitingTime="0.30" waitingCount="3" stopTime="0.00" timeLoss="11.99" rerouteNo="0" devices="tripinfo_L_48" vType="car8" speedFactor="0.88" vaporized=""/>
    <tripinfo id="S_50" depart="119.00" departLane="1_1" departPos="6.10" departSpeed="0.00" departDelay="0.00" arrival="161.50" arrivalLane="-3_0" arrivalPos="200.00" arrivalSpeed="11.18" duration="42.50" routeLength="416.30" waitingTime="0.00" waitingCount="0" stopTime="0.00" timeLoss="5.27" rerouteNo="0" devices="tripinfo_S_50" vType="car6" speedFactor="0.85" vaporized=""/>
    <tripinfo id="S_51" depart="124.00" departLane="1_1" departPos="6.10" departSpeed="0.00" departDelay="0.00" arrival="163.70" arrivalLane="-3_0" arrivalPos="200.00" arrivalSpeed="11.18" duration="39.70" routeLength="416.30" waitingTime="0.00" waitingCount="0" stopTime="0.00" timeLoss="2.40" rerouteNo="0" devices="tripinfo_S_51" vType="car6" speedFactor="1.17" vaporized=""/>
    <tripinfo id="L_34" depart="81.00" departLane="3_2" departPos="7.10" departSpeed="0.00" departDelay="0.00" arrival="164.20" arrivalLane="-4_1" arrivalPos="200.00" arrivalSpeed="11.18" duration="83.20" routeLength="413.55" waitingTime="45.80" waitingCount="2" stopTime="0.00" timeLoss="45.89" rerouteNo="0" devices="tripinfo_L_34" vType="car7" speedFactor="0.99" vaporized=""/>
    <tripinfo id="R_52" depart="128.00" departLane="1_0" departPos="7.10" departSpeed="0.00" departDelay="0.00" arrival="167.90" arrivalLane="-4_0" arrivalPos="200.00" arrivalSpeed="11.18" duration="39.90" routeLength="398.06" waitingTime="0.00" waitingCount="0" stopTime="0.00" timeLoss="3.76" rerouteNo="0" devices="tripinfo_R_52" vType="car7" speedFactor="1.02" vaporized=""/>
    <tripinfo id="L_53" depart="129.00" departLane="1_2" departPos="6.10" departSpeed="0.00" departDelay="0.00" arrival="168.70" arrivalLane="-2_1" arrivalPos="200.00" arrivalSpeed="11.18" duration="39.70" routeLength="414.55" waitingTime="0.00" waitingCount="0" stopTime="0.00" timeLoss="2.43" rerouteNo="0" devices="tripinfo_L_53" vType="car6" speedFactor="1.10" vaporized=""/>
    <tripinfo id="L_47" depart="111.00" departLane="3_2" departPos="6.10" departSpeed="0.00" departDelay="0.00" arrival="169.30" arrivalLane="-4_1" arrivalPos="200.00" arrivalSpeed="11.18" duration="58.30" routeLength="414.55" waitingTime="3.30" waitingCount="17" stopTime="0.00" timeLoss="20.66" rerouteNo="0" devices="tripinfo_L_47" vType="car6" speedFactor="0.90" vaporized=""/>
    <tripinfo id="L_54" depart="133.00" departLane="3_2" departPos="8.10" departSpeed="0.00" departDelay="0.00" arrival="172.90" arrivalLane="-4_0" arrivalPos="200.00" arrivalSpeed="11.18" duration="39.90" routeLength="412.55" waitingTime="0.00" waitingCount="0" stopTime="0.00" timeLoss="2.66" rerouteNo="0" devices="tripinfo_L_54" vType="car8" speedFactor="1.00" vaporized=""/>
    <tripinfo id="L_55" depart="134.00" departLane="1_2" departPos="7.10" departSpeed="0.00" departDelay="0.00" arrival="174.10" arrivalLane="-2_0" arrivalPos="200.00" arrivalSpeed="11.18" duration="40.10" routeLength="413.55" waitingTime="0.00" waitingCount="0" stopTime="0.00" timeLoss="2.70" rerouteNo="0" devices="tripinfo_L_55" vType="car7" speedFactor="1.00" vaporized=""/>
    <tripinfo id="S_62" depart="152.00" departLane="3_1" departPos="7.10" departSpeed="0.00" departDelay="0.00" arrival="189.20" arrivalLane="-1_0" arrivalPos="200.00" arrivalSpeed="11.18" duration="37.20" routeLength="415.30" waitingTime="0.00" waitingCount="0" stopTime="0.00" timeLoss="0.01" rerouteNo="0" devices="tripinfo_S_62" vType="car7" speedFactor="1.02" vaporized=""/>
    <tripinfo id="L_59" depart="149.00" departLane="1_2" departPos="7.10" departSpeed="0.00" departDelay="0.00" arrival="189.90" arrivalLane="-2_1" arrivalPos="200.00" arrivalSpeed="11.18" duration="40.90" routeLength="413.55" waitingTime="1.10" waitingCount="1" stopTime="0.00" timeLoss="3.45" rerouteNo="0" devices="tripinfo_L_59" vType="car7" speedFactor="0.97" vaporized=""/>
    <tripinfo id="L_61" depart="152.00" departLane="1_2" departPos="5.10" departSpeed="0.00" departDelay="0.00" arrival="192.10" arrivalLane="-2_1" arrivalPos="200.00" arrivalSpeed="11.18" duration="40.10" routeLength="415.55" waitingTime="0.00" waitingCount="0" stopTime="0.00" timeLoss="2.80" rerouteNo="0" devices="tripinfo_L_61" vType="car5" speedFactor="1.12" vaporized=""/>
    <tripinfo id="S_49" depart="116.00" departLane="2_1" departPos="5.10" departSpeed="0.00" departDelay="0.00" arrival="199.90" arrivalLane="-4_0" arrivalPos="200.00" arrivalSpeed="11.18" duration="83.90" routeLength="417.30" waitingTime="46.50" waitingCount="1" stopTime="0.00" timeLoss="46.57" rerouteNo="0" devices="tripinfo_S_49" vType="car5" speedFactor="0.85" vaporized=""/>
    <tripinfo id="S_56" depart="135.00" departLane="4_1" departPos="8.10" departSpeed="0.00" departDelay="0.00" arrival="199.90" arrivalLane="-2_0" arrivalPos="200.00" arrivalSpeed="11.18" duration="64.90" routeLength="414.30" waitingTime="27.80" waitingCount="1" stopTime="0.00" timeLoss="27.84" rerouteNo="0" devices="tripinfo_S_56" vType="car8" speedFactor="0.90" vaporized=""/>
    <tripinfo id="S_58" depart="140.00" departLane="2_1" departPos="5.10" departSpeed="0.00" departDelay="0.00" arrival="199.90" arrivalLane="-4_1" arrivalPos="200.00" arrivalSpeed="11.18" duration="59.90" routeLength="417.30" waitingTime="22.50" waitingCount="1" stopTime="0.00" timeLoss="22.57" rerouteNo="0" devices="tripinfo_S_58" vType="car5" speedFactor="1.02" vaporized=""/>
    <tripinfo id="L_57" depart="137.00" departLane="4_2" departPos="7.10" departSpeed="0.00" departDelay="0.00" arrival="200.30" arrivalLane="-1_1" arrivalPos="200.00" arrivalSpeed="11.18" duration="63.30" routeLength="413.55" waitingTime="26.10" waitingCount="2" stopTime="0.00" timeLoss="26.25" rerouteNo="0" devices="tripinfo_L_57" vType="car7" speedFactor="1.14" vaporized=""/>
    <tripinfo id="R_66" depart="162.00" departLane="4_0" departPos="9.10" departSpeed="0.00" departDelay="0.00" arrival="201.30" arrivalLane="-3_0" arrivalPos="200.00" arrivalSpeed="11.18" duration="39.30" routeLength="396.06" waitingTime="0.00" waitingCount="0" stopTime="0.00" timeLoss="3.18" rerouteNo="0" devices="tripinfo_R_66" vType="car9" speedFactor="0.91" vaporized=""/>
    <tripinfo id="L_60" depart="151.00" departLane="4_2" departPos="8.10" departSpeed="0.00" departDelay="0.00" arrival="202.50" arrivalLane="-1_0" arrivalPos="200.00" arrivalSpeed="11.18" duration="51.50" routeLength="412.55" waitingTime="4.60" waitingCount="12" stopTime="0.00" timeLoss="14.37" rerouteNo="0" devices="tripinfo_L_60" vType="car8" speedFactor="1.08" vaporized=""/>
    <tripinfo id="L_67" depart="165.00" departLane="2_2" departPos="5.10" departSpeed="0.00" departDelay="0.00" arrival="204.20" arrivalLane="-3_1" arrivalPos="200.00" arrivalSpeed="11.18" duration="39.20" routeLength="415.55" waitingTime="1.40" waitingCount="1" stopTime="0.00" timeLoss="1.49" rerouteNo="0" devices="tripinfo_L_67" vType="car5" speedFactor="0.91" vaporized=""/>
    <tripinfo id="L_64" depart="159.00" departLane="4_2" departPos="5.10" departSpeed="0.00" departDelay="0.00" arrival="204.70" arrivalLane="-1_0" arrivalPos="200.00" arrivalSpeed="11.18" duration="45.70" routeLength="415.55" waitingTime="0.00" waitingCount="0" stopTime="0.00" timeLoss="8.06" rerouteNo="0" devices="tripinfo_L_64" vType="car5" speedFactor="0.94" vaporized=""/>
    <tripinfo id="R_68" depart="165.00" departLane="4_0" departPos="5.10" departSpeed="0.00" departDelay="0.00" arrival="205.40" arrivalLane="-3_0" arrivalPos="200.00" arrivalSpeed="11.18" duration="40.40" routeLength="400.06" waitingTime="0.00" waitingCount="0" stopTime="0.00" timeLoss="4.08" rerouteNo="0" devices="tripinfo_R_68" vType="car5" speedFactor="1.04" vaporized=""/>
    <tripinfo id="S_73" depart="174.00" departLane="4_1" departPos="5.10" departSpeed="0.00" departDelay="0.00" arrival="211.40" arrivalLane="-2_0" arrivalPos="200.00" arrivalSpeed="11.18" duration="37.40" routeLength="417.30" waitingTime="0.00" waitingCount="0" stopTime="0.00" timeLoss="0.01" rerouteNo="0" devices="tripinfo_S_73" vType="car5" speedFactor="1.06" vaporized=""/>
    <tripinfo id="S_71" depart="173.00" departLane="2_1" departPos="8.10" departSpeed="0.00" departDelay="0.00" arrival="212.50" arrivalLane="-4_0" arrivalPos="200.00" arrivalSpeed="11.18" duration="39.50" routeLength="414.30" waitingTime="0.00" waitingCount="0" stopTime="0.00" timeLoss="2.40" rerouteNo="0" devices="tripinfo_S_71" vType="car8" speedFactor="0.97" vaporized=""/>
    <tripinfo id="R_72" depart="173.00" departLane="4_0" departPos="8.10" departSpeed="0.00" departDelay="0.00" arrival="213.00" arrivalLane="-3_0" arrivalPos="200.00" arrivalSpeed="11.18" duration="40.00" routeLength="397.06" waitingTime="0.00" waitingCount="0" stopTime="0.00" timeLoss="3.85" rerouteNo="0" devices="tripinfo_R_72" vType="car8" speedFactor="0.94" vaporized=""/>
    <tripinfo id="L_76" depart="189.00" departLane="2_2" departPos="6.10" departSpeed="0.00" departDelay="0.00" arrival="226.40" arrivalLane="-3_1" arrivalPos="200.00" arrivalSpeed="11.18" duration="37.40" routeLength="414.55" waitingTime="0.00" waitingCount="0" stopTime="0.00" timeLoss="0.02" rerouteNo="0" devices="tripinfo_L_76" vType="car6" speedFactor="1.03" vaporized=""/>
    <tripinfo id="L_77" depart="194.00" departLane="2_2" departPos="9.10" departSpeed="0.00" departDelay="0.00" arrival="233.80" arrivalLane="-3_0" arrivalPos="200.00" arrivalSpeed="11.18" duration="39.80" routeLength="411.55" waitingTime="0.00" waitingCount="0" stopTime="0.00" timeLoss="2.61" rerouteNo="0" devices="tripinfo_L_77" vType="car9" speedFactor="0.98" vaporized=""/>
    <tripinfo id="R_70" depart="170.00" departLane="1_0" departPos="9.10" departSpeed="0.00" departDelay="0.00" arrival="243.90" arrivalLane="-4_0" arrivalPos="200.00" arrivalSpeed="11.18" duration="73.90" routeLength="396.06" waitingTime="37.80" waitingCount="1" stopTime="0.00" timeLoss="37.98" rerouteNo="0" devices="tripinfo_R_70" vType="car9" speedFactor="1.02" vaporized=""/>
    <tripinfo id="S_65" depart="161.00" departLane="3_1" departPos="9.10" departSpeed="0.00" departDelay="0.00" arrival="244.90" arrivalLane="-1_0" arrivalPos="200.00" arrivalSpeed="11.18" duration="83.90" routeLength="413.30" waitingTime="46.80" waitingCount="1" stopTime="0.00" timeLoss="46.93" rerouteNo="0" devices="tripinfo_S_65" vType="car9" speedFactor="0.88" vaporized=""/>
    <tripinfo id="S_84" depart="202.00" departLane="3_1" departPos="7.10" departSpeed="0.00" departDelay="0.00" arrival="244.90" arrivalLane="-1_1" arrivalPos="200.00" arrivalSpeed="11.18" duration="42.90" routeLength="415.30" waitingTime="5.70" waitingCount="1" stopTime="0.00" timeLoss="5.75" rerouteNo="0" devices="tripinfo_S_84" vType="car7" speedFactor="1.15" vaporized=""/>