<?xml version="1.0" encoding="UTF-8"?>

<!-- generated on 04/23/21 17:00:23 by Eclipse SUMO sumo Version 1.8.0
<configuration xmlns:xsi="http://www.w3.org/2001/XMLSchema-instance" xsi:noNamespaceSchemaLocation="http://sumo.dlr.de/xsd/sumoConfiguration.xsd">

    <input>
        <net-file value="data/lane3.net.xml"/>
        <route-files value="data/icacc+.rou.xml"/>
        <additional-files value="data/icacc+.det.xml"/>
    </input>

    <output>
        <tripinfo-output value="tripinfo.xml"/>
    </output>

    <time>
        <begin value="0"/>
        <step-length value="0.1"/>
    </time>

    <processing>
        <collision.mingap-factor value="0"/>
        <time-to-teleport value="-1"/>
        <lanechange.duration value="0.5"/>
    </processing>

    <report>
        <verbose value="true"/>
        <no-step-log value="true"/>
    </report>

    <traci_server>
        <remote-port value="4749"/>
    </traci_server>

    <gui_only>
        <start value="true"/>
        <tracker-interval value="0.1"/>
    </gui_only>

</configuration>
-->

<tripinfos xmlns:xsi="http://www.w3.org/2001/XMLSchema-instance" xsi:noNamespaceSchemaLocation="http://sumo.dlr.de/xsd/tripinfo_file.xsd">
    <tripinfo id="R_0" depart="1.00" departLane="3_1" departPos="5.10" departSpeed="11.18" departDelay="0.00" arrival="36.90" arrivalLane="-2_0" arrivalPos="200.00" arrivalSpeed="11.18" duration="35.90" routeLength="400.06" waitingTime="0.00" waitingCount="0" stopTime="0.00" timeLoss="-2.55" rerouteNo="0" devices="tripinfo_R_0" vType="car5@R_0" speedFactor="1.06" vaporized=""/>
    <tripinfo id="S_1" depart="8.00" departLane="3_0" departPos="5.10" departSpeed="11.18" departDelay="0.00" arrival="45.40" arrivalLane="-1_2" arrivalPos="200.00" arrivalSpeed="11.18" duration="37.40" routeLength="417.30" waitingTime="0.00" waitingCount="0" stopTime="0.00" timeLoss="0.00" rerouteNo="0" devices="tripinfo_S_1" vType="car5@S_1" speedFactor="0.94" vaporized=""/>
    <tripinfo id="L_2" depart="10.00" departLane="4_1" departPos="7.10" departSpeed="11.18" departDelay="0.00" arrival="47.20" arrivalLane="-1_2" arrivalPos="200.00" arrivalSpeed="11.18" duration="37.20" routeLength="412.45" waitingTime="0.00" waitingCount="0" stopTime="0.00" timeLoss="-2.25" rerouteNo="0" devices="tripinfo_L_2" vType="car7@L_2" speedFactor="1.01" vaporized=""/>
    <tripinfo id="L_3" depart="12.00" departLane="2_0" departPos="8.10" departSpeed="11.18" departDelay="0.00" arrival="56.00" arrivalLane="-3_2" arrivalPos="200.00" arrivalSpeed="11.18" duration="44.00" routeLength="411.45" waitingTime="6.10" waitingCount="1" stopTime="0.00" timeLoss="-4407.73" rerouteNo="0" devices="tripinfo_L_3" vType="car8@L_3" speedFactor="1.08" vaporized=""/>
    <tripinfo id="S_4" depart="20.00" departLane="3_2" departPos="9.10" departSpeed="11.18" departDelay="0.00" arrival="57.40" arrivalLane="-1_1" arrivalPos="200.00" arrivalSpeed="11.18" duration="37.40" routeLength="413.30" waitingTime="0.00" waitingCount="0" stopTime="0.00" timeLoss="-0.01" rerouteNo="0" devices="tripinfo_S_4" vType="car9@S_4" speedFactor="1.03" vaporized=""/>
    <tripinfo id="L_5" depart="21.00" departLane="4_2" departPos="6.10" departSpeed="11.18" departDelay="0.00" arrival="58.20" arrivalLane="-1_2" arrivalPos="200.00" arrivalSpeed="11.18" duration="37.20" routeLength="413.45" waitingTime="0.00" waitingCount="0" stopTime="0.00" timeLoss="-2.70" rerouteNo="0" devices="tripinfo_L_5" vType="car6@L_5" speedFactor="0.83" vaporized=""/>
    <tripinfo id="R_6" depart="22.00" departLane="2_0" departPos="9.10" departSpeed="11.18" departDelay="0.00" arrival="58.20" arrivalLane="-1_0" arrivalPos="200.00" arrivalSpeed="11.18" duration="36.20" routeLength="396.06" waitingTime="0.00" waitingCount="0" stopTime="0.00" timeLoss="-2.66" rerouteNo="0" devices="tripinfo_R_6" vType="car9@R_6" speedFactor="1.05" vaporized=""/>
    <tripinfo id="S_7" depart="26.00" departLane="4_2" departPos="6.10" departSpeed="11.18" departDelay="0.00" arrival="63.30" arrivalLane="-2_1" arrivalPos="200.00" arrivalSpeed="11.18" duration="37.30" routeLength="416.30" waitingTime="0.00" waitingCount="0" stopTime="0.00" timeLoss="0.00" rerouteNo="0" devices="tripinfo_S_7" vType="car6@S_7" speedFactor="0.89" vaporized=""/>
    <tripinfo id="S_8" depart="28.00" departLane="2_2" departPos="7.10" departSpeed="11.18" departDelay="0.00" arrival="65.20" arrivalLane="-4_2" arrivalPos="200.00" arrivalSpeed="11.18" duration="37.20" routeLength="415.30" waitingTime="0.00" waitingCount="0" stopTime="0.00" timeLoss="0.00" rerouteNo="0" devices="tripinfo_S_8" vType="car7@S_8" speedFactor="0.94" vaporized=""/>
    <tripinfo id="S_9" depart="29.00" departLane="2_0" departPos="7.10" departSpeed="11.18" departDelay="0.00" arrival="67.00" arrivalLane="-4_2" arrivalPos="200.00" arrivalSpeed="11.18" duration="38.00" routeLength="415.30" waitingTime="0.00" waitingCount="0" stopTime="0.00" timeLoss="0.84" rerouteNo="0" devices="tripinfo_S_9" vType="car7@S_9" speedFactor="0.86" vaporized=""/>
    <tripinfo id="L_11" depart="32.00" departLane="2_1" departPos="7.10" departSpeed="11.18" departDelay="0.00" arrival="69.20" arrivalLane="-3_2" arrivalPos="200.00" arrivalSpeed="11.18" duration="37.20" routeLength="412.45" waitingTime="0.00" waitingCount="0" stopTime="0.00" timeLoss="-2.21" rerouteNo="0" devices="tripinfo_L_11" vType="car7@L_11" speedFactor="1.03" vaporized=""/>
    <tripinfo id="S_10" depart="29.00" departLane="4_1" departPos="5.10" departSpeed="11.18" departDelay="0.00" arrival="73.80" arrivalLane="-2_2" arrivalPos="200.00" arrivalSpeed="11.18" duration="44.80" routeLength="417.30" waitingTime="6.50" waitingCount="1" stopTime="0.00" timeLoss="-4058.72" rerouteNo="0" devices="tripinfo_S_10" vType="car5@S_10" speedFactor="1.09" vaporized=""/>
    <tripinfo id="S_12" depart="34.00" departLane="4_0" departPos="5.10" departSpeed="11.18" departDelay="0.00" arrival="74.50" arrivalLane="-2_2" arrivalPos="200.00" arrivalSpeed="11.18" duration="40.50" routeLength="417.30" waitingTime="0.50" waitingCount="1" stopTime="0.00" timeLoss="0.64" rerouteNo="0" devices="tripinfo_S_12" vType="car5@S_12" speedFactor="1.05" vaporized=""/>
    <tripinfo id="S_13" depart="36.00" departLane="3_1" departPos="5.10" departSpeed="11.18" departDelay="0.00" arrival="75.90" arrivalLane="-1_2" arrivalPos="200.00" arrivalSpeed="11.18" duration="39.90" routeLength="417.30" waitingTime="0.00" waitingCount="0" stopTime="0.00" timeLoss="-0.20" rerouteNo="0" devices="tripinfo_S_13" vType="car5@S_13" speedFactor="1.12" vaporized=""/>
    <tripinfo id="L_14" depart="42.00" departLane="1_0" departPos="7.10" departSpeed="11.18" departDelay="0.00" arrival="79.20" arrivalLane="-2_2" arrivalPos="200.00" arrivalSpeed="11.18" duration="37.20" routeLength="412.45" waitingTime="0.00" waitingCount="0" stopTime="0.00" timeLoss="-2.29" rerouteNo="0" devices="tripinfo_L_14" vType="car7@L_14" speedFactor="0.99" vaporized=""/>
    <tripinfo id="R_17" depart="57.00" departLane="3_0" departPos="9.10" departSpeed="11.18" departDelay="0.00" arrival="92.50" arrivalLane="-2_0" arrivalPos="200.00" arrivalSpeed="11.18" duration="35.50" routeLength="396.06" waitingTime="0.00" waitingCount="0" stopTime="0.00" timeLoss="-2.76" rerouteNo="0" devices="tripinfo_R_17" vType="car9@R_17" speedFactor="0.94" vaporized=""/>
    <tripinfo id="S_15" depart="56.00" departLane="1_1" departPos="8.10" departSpeed="11.18" departDelay="0.00" arrival="93.10" arrivalLane="-3_2" arrivalPos="200.00" arrivalSpeed="11.18" duration="37.10" routeLength="414.30" waitingTime="0.00" waitingCount="0" stopTime="0.00" timeLoss="0.00" rerouteNo="0" devices="tripinfo_S_15" vType="car8@S_15" speedFactor="0.93" vaporized=""/>
    <tripinfo id="L_16" depart="57.00" departLane="2_0" departPos="5.10" departSpeed="11.18" departDelay="0.00" arrival="94.50" arrivalLane="-3_2" arrivalPos="200.00" arrivalSpeed="11.18" duration="37.50" routeLength="414.45" waitingTime="0.00" waitingCount="0" stopTime="0.00" timeLoss="-2.56" rerouteNo="0" devices="tripinfo_L_16" vType="car5@L_16" speedFactor="0.88" vaporized=""/>
    <tripinfo id="S_18" depart="61.00" departLane="2_0" departPos="8.10" departSpeed="11.18" departDelay="0.00" arrival="98.10" arrivalLane="-4_2" arrivalPos="200.00" arrivalSpeed="11.18" duration="37.10" routeLength="414.30" waitingTime="0.00" waitingCount="0" stopTime="0.00" timeLoss="0.00" rerouteNo="0" devices="tripinfo_S_18" vType="car8@S_18" speedFactor="0.94" vaporized=""/>
    <tripinfo id="S_20" depart="63.00" departLane="3_2" departPos="9.10" departSpeed="11.18" departDelay="0.00" arrival="100.00" arrivalLane="-1_2" arrivalPos="200.00" arrivalSpeed="11.18" duration="37.00" routeLength="413.30" waitingTime="0.00" waitingCount="0" stopTime="0.00" timeLoss="0.00" rerouteNo="0" devices="tripinfo_S_20" vType="car9@S_20" speedFactor="1.02" vaporized=""/>
    <tripinfo id="S_21" depart="65.00" departLane="2_0" departPos="9.10" departSpeed="11.18" departDelay="0.00" arrival="102.00" arrivalLane="-4_2" arrivalPos="200.00" arrivalSpeed="11.18" duration="37.00" routeLength="413.30" waitingTime="0.00" waitingCount="0" stopTime="0.00" timeLoss="0.00" rerouteNo="0" devices="tripinfo_S_21" vType="car9@S_21" speedFactor="1.01" vaporized=""/>
    <tripinfo id="R_19" depart="61.00" departLane="4_2" departPos="7.10" departSpeed="11.18" departDelay="0.00" arrival="103.40" arrivalLane="-3_0" arrivalPos="200.00" arrivalSpeed="11.18" duration="42.40" routeLength="398.06" waitingTime="5.80" waitingCount="1" stopTime="0.00" timeLoss="-4298.05" rerouteNo="0" devices="tripinfo_R_19" vType="car7@R_19" speedFactor="1.16" vaporized=""/>
    <tripinfo id="S_22" depart="67.00" departLane="3_1" departPos="6.10" departSpeed="11.18" departDelay="0.00" arrival="104.30" arrivalLane="-1_2" arrivalPos="200.00" arrivalSpeed="11.18" duration="37.30" routeLength="416.30" waitingTime="0.00" waitingCount="0" stopTime="0.00" timeLoss="0.00" rerouteNo="0" devices="tripinfo_S_22" vType="car6@S_22" speedFactor="0.98" vaporized=""/>
    <tripinfo id="R_23" depart="70.00" departLane="4_1" departPos="9.10" departSpeed="11.18" departDelay="0.00" arrival="106.60" arrivalLane="-3_2" arrivalPos="200.00" arrivalSpeed="11.18" duration="36.60" routeLength="406.39" waitingTime="0.00" waitingCount="0" stopTime="0.00" timeLoss="-2.68" rerouteNo="0" devices="tripinfo_R_23" vType="car9@R_23" speedFactor="0.89" vaporized=""/>
    <tripinfo id="S_24" depart="71.00" departLane="2_1" departPos="7.10" departSpeed="11.18" departDelay="0.00" arrival="108.20" arrivalLane="-4_1" arrivalPos="200.00" arrivalSpeed="11.18" duration="37.20" routeLength="415.30" waitingTime="0.00" waitingCount="0" stopTime="0.00" timeLoss="0.00" rerouteNo="0" devices="tripinfo_S_24" vType="car7@S_24" speedFactor="0.83" vaporized=""/>
    <tripinfo id="S_25" depart="74.00" departLane="2_1" departPos="8.10" departSpeed="11.18" departDelay="0.00" arrival="111.10" arrivalLane="-4_1" arrivalPos="200.00" arrivalSpeed="11.18" duration="37.10" routeLength="414.30" waitingTime="0.00" waitingCount="0" stopTime="0.00" timeLoss="0.00" rerouteNo="0" devices="tripinfo_S_25" vType="car8@S_25" speedFactor="0.87" vaporized=""/>
    <tripinfo id="R_27" depart="82.00" departLane="3_2" departPos="9.10" departSpeed="11.18" departDelay="0.00" arrival="117.50" arrivalLane="-2_0" arrivalPos="200.00" arrivalSpeed="11.18" duration="35.50" routeLength="396.06" waitingTime="0.00" waitingCount="0" stopTime="0.00" timeLoss="-2.75" rerouteNo="0" devices="tripinfo_R_27" vType="car9@R_27" speedFactor="0.95" vaporized=""/>
    <tripinfo id="L_26" depart="82.00" departLane="1_1" departPos="6.10" departSpeed="11.18" departDelay="0.00" arrival="119.20" arrivalLane="-2_2" arrivalPos="200.00" arrivalSpeed="11.18" duration="37.20" routeLength="413.45" waitingTime="0.00" waitingCount="0" stopTime="0.00" timeLoss="-2.46" rerouteNo="0" devices="tripinfo_L_26" vType="car6@L_26" speedFactor="0.92" vaporized=""/>
    <tripinfo id="S_28" depart="83.00" departLane="4_0" departPos="5.10" departSpeed="11.18" departDelay="0.00" arrival="120.40" arrivalLane="-2_1" arrivalPos="200.00" arrivalSpeed="11.18" duration="37.40" routeLength="417.30" waitingTime="0.00" waitingCount="0" stopTime="0.00" timeLoss="0.00" rerouteNo="0" devices="tripinfo_S_28" vType="car5@S_28" speedFactor="1.13" vaporized=""/>
    <tripinfo id="L_30" depart="93.00" departLane="3_1" departPos="9.10" departSpeed="11.18" departDelay="0.00" arrival="130.00" arrivalLane="-4_2" arrivalPos="200.00" arrivalSpeed="11.18" duration="37.00" routeLength="410.45" waitingTime="0.00" waitingCount="0" stopTime="0.00" timeLoss="-2.12" rerouteNo="0" devices="tripinfo_L_30" vType="car9@L_30" speedFactor="1.18" vaporized=""/>
    <tripinfo id="S_29" depart="93.00" departLane="2_2" departPos="6.10" departSpeed="11.18" departDelay="0.00" arrival="130.30" arrivalLane="-4_1" arrivalPos="200.00" arrivalSpeed="11.18" duration="37.30" routeLength="416.30" waitingTime="0.00" waitingCount="0" stopTime="0.00" timeLoss="0.00" rerouteNo="0" devices="tripinfo_S_29" vType="car6@S_29" speedFactor="0.93" vaporized=""/>
    <tripinfo id="R_31" depart="106.00" departLane="1_2" departPos="7.10" departSpeed="11.18" departDelay="0.00" arrival="141.70" arrivalLane="-4_0" arrivalPos="200.00" arrivalSpeed="11.18" duration="35.70" routeLength="398.06" waitingTime="0.00" waitingCount="0" stopTime="0.00" timeLoss="-2.47" rerouteNo="0" devices="tripinfo_R_31" vType="car7@R_31" speedFactor="1.15" vaporized=""/>
    <tripinfo id="R_32" depart="107.00" departLane="4_0" departPos="7.10" departSpeed="11.18" departDelay="0.00" arrival="142.70" arrivalLane="-3_0" arrivalPos="200.00" arrivalSpeed="11.18" duration="35.70" routeLength="398.06" waitingTime="0.00" waitingCount="0" stopTime="0.00" timeLoss="-2.60" rerouteNo="0" devices="tripinfo_R_32" vType="car7@R_32" speedFactor="1.01" vaporized=""/>
    <tripinfo id="S_33" depart="118.00" departLane="2_0" departPos="8.10" departSpeed="11.18" departDelay="0.00" arrival="155.10" arrivalLane="-4_2" arrivalPos="200.00" arrivalSpeed="11.18" duration="37.10" routeLength="414.30" waitingTime="0.00" waitingCount="0" stopTime="0.00" timeLoss="0.00" rerouteNo="0" devices="tripinfo_S_33" vType="car8@S_33" speedFactor="1.17" vaporized=""/>
    <tripinfo id="S_35" depart="131.00" departLane="4_0" departPos="8.10" departSpeed="11.18" departDelay="0.00" arrival="168.10" arrivalLane="-2_1" arrivalPos="200.00" arrivalSpeed="11.18" duration="37.10" routeLength="414.30" waitingTime="0.00" waitingCount="0" stopTime="0.00" timeLoss="0.00" rerouteNo="0" devices="tripinfo_S_35" vType="car8@S_35" speedFactor="1.02" vaporized=""/>
    <tripinfo id="R_37" depart="132.00" departLane="4_2" departPos="6.10" departSpeed="11.18" departDelay="0.00" arrival="168.90" arrivalLane="-3_0" arrivalPos="200.00" arrivalSpeed="11.18" duration="36.90" routeLength="399.06" waitingTime="0.00" waitingCount="0" stopTime="0.00" timeLoss="-1.68" rerouteNo="0" devices="tripinfo_R_37" vType="car6@R_37" speedFactor="1.18" vaporized=""/>
    <tripinfo id="S_36" depart="132.00" departLane="3_0" departPos="9.10" departSpeed="11.18" departDelay="0.00" arrival="170.10" arrivalLane="-1_2" arrivalPos="200.00" arrivalSpeed="11.18" duration="38.10" routeLength="413.30" waitingTime="0.00" waitingCount="0" stopTime="0.00" timeLoss="-0.05" rerouteNo="0" devices="tripinfo_S_36" vType="car9@S_36" speedFactor="0.97" vaporized=""/>
    <tripinfo id="L_34" depart="130.00" departLane="4_2" departPos="8.10" departSpeed="11.18" departDelay="0.00" arrival="172.40" arrivalLane="-1_2" arrivalPos="200.00" arrivalSpeed="11.18" duration="42.40" routeLength="411.45" waitingTime="4.50" waitingCount="1" stopTime="0.00" timeLoss="-4407.88" rerouteNo="0" devices="tripinfo_L_34" vType="car8@L_34" speedFactor="0.99" vaporized=""/>
    <tripinfo id="R_38" depart="140.00" departLane="3_0" departPos="9.10" departSpeed="11.18" departDelay="0.00" arrival="175.50" arrivalLane="-2_0" arrivalPos="200.00" arrivalSpeed="11.18" duration="35.50" routeLength="396.06" waitingTime="0.00" waitingCount="0" stopTime="0.00" timeLoss="-2.58" rerouteNo="0" devices="tripinfo_R_38" vType="car9@R_38" speedFactor="1.10" vaporized=""/>
    <tripinfo id="R_39" depart="143.00" departLane="4_2" departPos="6.10" departSpeed="11.18" departDelay="0.00" arrival="178.80" arrivalLane="-3_0" arrivalPos="200.00" arrivalSpeed="11.18" duration="35.80" routeLength="399.06" waitingTime="0.00" waitingCount="0" stopTime="0.00" timeLoss="-2.71" rerouteNo="0" devices="tripinfo_R_39" vType="car6@R_39" speedFactor="0.90" vaporized=""/>
    <tripinfo id="L_40" depart="148.00" departLane="3_0" departPos="5.10" departSpeed="11.18" departDelay="0.00" arrival="185.80" arrivalLane="-4_1" arrivalPos="200.00" arrivalSpeed="11.18" duration="37.80" routeLength="419.34" waitingTime="0.00" waitingCount="0" stopTime="0.00" timeLoss="-2.12" rerouteNo="0" devices="tripinfo_L_40" vType="car5@L_40" speedFactor="1.03" vaporized=""/>
    <tripinfo id="S_41" depart="152.00" departLane="4_0" departPos="9.10" departSpeed="11.18" departDelay="0.00" arrival="189.00" arrivalLane="-2_2" arrivalPos="200.00" arrivalSpeed="11.18" duration="37.00" routeLength="413.30" waitingTime="0.00" waitingCount="0" stopTime="0.00" timeLoss="0.00" rerouteNo="0" devices="tripinfo_S_41" vType="car9@S_41" speedFactor="0.96" vaporized=""/>
    <tripinfo id="L_42" depart="164.00" departLane="1_0" departPos="5.10" departSpeed="11.18" departDelay="0.00" arrival="201.30" arrivalLane="-2_2" arrivalPos="200.00" arrivalSpeed="11.18" duration="37.30" routeLength="414.45" waitingTime="0.00" waitingCount="0" stopTime="0.00" timeLoss="-2.12" rerouteNo="0" devices="tripinfo_L_42" vType="car5@L_42" speedFactor="1.09" vaporized=""/>
    <tripinfo id="R_44" depart="172.00" departLane="2_0" departPos="9.10" departSpeed="11.18" departDelay="0.00" arrival="207.50" arrivalLane="-1_0" arrivalPos="200.00" arrivalSpeed="11.18" duration="35.50" routeLength="396.06" waitingTime="0.00" waitingCount="0" stopTime="0.00" timeLoss="-2.64" rerouteNo="0" devices="tripinfo_R_44" vType="car9@R_44" speedFactor="1.04" vaporized=""/>
    <tripinfo id="S_43" depart="167.00" departLane="2_0" departPos="7.10" departSpeed="11.18" departDelay="0.00" arrival="211.60" arrivalLane="-4_2" arrivalPos="200.00" arrivalSpeed="11.18" duration="44.60" routeLength="415.30" waitingTime="6.50" waitingCount="1" stopTime="0.00" timeLoss="-4295.59" rerouteNo="0" devices="tripinfo_S_43" vType="car7@S_43" speedFactor="1.04" vaporized=""/>
    <tripinfo id="R_45" depart="180.00" departLane="1_1" departPos="8.10" departSpeed="11.18" departDelay="0.00" arrival="215.60" arrivalLane="-4_0" arrivalPos="200.00" arrivalSpeed="11.18" duration="35.60" routeLength="397.06" waitingTime="0.00" waitingCount="0" stopTime="0.00" timeLoss="-2.53" rerouteNo="0" devices="tripinfo_R_45" vType="car8@R_45" speedFactor="1.09" vaporized=""/>
    <tripinfo id="L_46" depart="187.00" departLane="3_2" departPos="8.10" departSpeed="11.18" departDelay="0.00" arrival="224.10" arrivalLane="-4_2" arrivalPos="200.00" arrivalSpeed="11.18" duration="37.10" routeLength="411.45" waitingTime="0.00" waitingCount="0" stopTime="0.00" timeLoss="-2.28" rerouteNo="0" devices="tripinfo_L_46" vType="car8@L_46" speedFactor="1.00" vaporized=""/>
    <tripinfo id="S_47" depart="190.00" departLane="2_0" departPos="7.10" departSpeed="11.18" departDelay="0.00" arrival="227.20" arrivalLane="-4_1" arrivalPos="200.00" arrivalSpeed="11.18" duration="37.20" routeLength="415.30" waitingTime="0.00" waitingCount="0" stopTime="0.00" timeLoss="0.00" rerouteNo="0" devices="tripinfo_S_47" vType="car7@S_47" speedFactor="0.90" vaporized=""/>
    <tripinfo id="L_48" depart="196.00" departLane="3_2" departPos="6.10" departSpeed="11.18" departDelay="0.00" arrival="233.20" arrivalLane="-4_2" arrivalPos="200.00" arrivalSpeed="11.18" duration="37.20" routeLength="413.45" waitingTime="0.00" waitingCount="0" stopTime="0.00" timeLoss="-2.56" rerouteNo="0" devices="tripinfo_L_48" vType="car6@L_48" speedFactor="0.88" vaporized=""/>
    <tripinfo id="S_49" depart="196.00" departLane="4_0" departPos="7.10" departSpeed="11.18" departDelay="0.00" arrival="233.90" arrivalLane="-2_0" arrivalPos="200.00" arrivalSpeed="11.18" duration="37.90" routeLength="415.30" waitingTime="0.00" waitingCount="0" stopTime="0.00" timeLoss="-0.02" rerouteNo="0" devices="tripinfo_S_49" vType="car7@S_49" speedFactor="0.85" vaporized=""/>
    <tripinfo id="L_50" depart="199.00" departLane="3_1" departPos="8.10" departSpeed="11.18" departDelay="0.00" arrival="236.10" arrivalLane="-4_2" arrivalPos="200.00" arrivalSpeed="11.18" duration="37.10" routeLength="411.45" waitingTime="0.00" waitingCount="0" stopTime="0.00" timeLoss="-2.64" rerouteNo="0" devices="tripinfo_L_50" vType="car8@L_50" speedFactor="0.85" vaporized=""/>
    <tripinfo id="R_51" depart="209.00" departLane="1_0" departPos="6.10" departSpeed="11.18" departDelay="0.00" arrival="244.80" arrivalLane="-4_0" arrivalPos="200.00" arrivalSpeed="11.18" duration="35.80" routeLength="399.06" waitingTime="0.00" waitingCount="0" stopTime="0.00" timeLoss="-2.46" rerouteNo="0" devices="tripinfo_R_51" vType="car6@R_51" speedFactor="1.17" vaporized=""/>
    <tripinfo id="L_52" depart="209.00" departLane="4_1" departPos="6.10" departSpeed="11.18" departDelay="0.00" arrival="246.20" arrivalLane="-1_2" arrivalPos="200.00" arrivalSpeed="11.18" duration="37.20" routeLength="413.45" waitingTime="0.00" waitingCount="0" stopTime="0.00" timeLoss="-2.23" rerouteNo="0" devices="tripinfo_L_52" vType="car6@L_52" speedFactor="1.02" vaporized=""/>
    <tripinfo id="L_53" depart="213.00" departLane="3_2" departPos="5.10" departSpeed="11.18" departDelay="0.00" arrival="250.30" arrivalLane="-4_2" arrivalPos="200.00" arrivalSpeed="11.18" duration="37.30" routeLength="414.45" waitingTime="0.00" waitingCount="0" stopTime="0.00" timeLoss="-2.12" rerouteNo="0" devices="tripinfo_L_53" vType="car5@L_53" speedFactor="1.10" vaporized=""/>
    <tripinfo id="R_54" depart="218.00" departLane="2_1" departPos="5.10" departSpeed="11.18" departDelay="0.00" arrival="253.90" arrivalLane="-1_0" arrivalPos="200.00" arrivalSpeed="11.18" duration="35.90" routeLength="400.06" waitingTime="0.00" waitingCount="0" stopTime="0.00" timeLoss="-2.60" rerouteNo="0" devices="tripinfo_R_54" vType="car5@R_54" speedFactor="1.00" vaporized=""/>
    <tripinfo id="S_56" depart="222.00" departLane="3_1" departPos="9.10" departSpeed="11.18" departDelay="0.00" arrival="259.00" arrivalLane="-1_2" arrivalPos="200.00" arrivalSpeed="11.18" duration="37.00" routeLength="413.30" waitingTime="0.00" waitingCount="0" stopTime="0.00" timeLoss="0.00" rerouteNo="0" devices="tripinfo_S_56" vType="car9@S_56" speedFactor="0.90" vaporized=""/>
    <tripinfo id="S_55" depart="221.00" departLane="2_2" departPos="9.10" departSpeed="11.18" departDelay="0.00" arrival="264.70" arrivalLane="-4_2" arrivalPos="200.00" arrivalSpeed="11.18" duration="43.70" routeLength="413.30" waitingTime="5.70" waitingCount="1" stopTime="0.00" timeLoss="-4526.49" rerouteNo="0" devices="tripinfo_S_55" vType="car9@S_55" speedFactor="1.00" vaporized=""/>
    <tripinfo id="S_57" depart="228.00" departLane="3_2" departPos="7.10" departSpeed="11.18" departDelay="0.00" arrival="265.80" arrivalLane="-1_2" arrivalPos="200.00" arrivalSpeed="11.18" duration="37.80" routeLength="415.30" waitingTime="0.00" waitingCount="0" stopTime="0.00" timeLoss="-0.02" rerouteNo="0" devices="tripinfo_S_57" vType="car7@S_57" speedFactor="1.14" vaporized=""/>
    <tripinfo id="R_58" depart="234.00" departLane="2_2" departPos="6.10" departSpeed="11.18" departDelay="0.00" arrival="269.80" arrivalLane="-1_0" arrivalPos="200.00" arrivalSpeed="11.18" duration="35.80" routeLength="399.06" waitingTime="0.00" waitingCount="0" stopTime="0.00" timeLoss="-2.58" rerouteNo="0" devices="tripinfo_R_58" vType="car6@R_58" speedFactor="1.02" vaporized=""/>
    <tripinfo id="S_59" depart="236.00" departLane="4_2" departPos="6.10" departSpeed="11.18" departDelay="0.00" arrival="273.30" arrivalLane="-2_2" arrivalPos="200.00" arrivalSpeed="11.18" duration="37.30" routeLength="416.30" waitingTime="0.00" waitingCount="0" stopTime="0.00" timeLoss="0.00" rerouteNo="0" devices="tripinfo_S_59" vType="car6@S_59" speedFactor="0.97" vaporized=""/>
    <tripinfo id="R_61" depart="239.00" departLane="4_0" departPos="9.10" departSpeed="11.18" departDelay="0.00" arrival="274.50" arrivalLane="-3_0" arrivalPos="200.00" arrivalSpeed="11.18" duration="35.50" routeLength="396.06" waitingTime="0.00" waitingCount="0" stopTime="0.00" timeLoss="-2.56" rerouteNo="0" devices="tripinfo_R_61" vType="car9@R_61" speedFactor="1.12" vaporized=""/>
    <tripinfo id="S_60" depart="239.00" departLane="1_2" departPos="9.10" departSpeed="11.18" departDelay="0.00" arrival="276.00" arrivalLane="-3_2" arrivalPos="200.00" arrivalSpeed="11.18" duration="37.00" routeLength="413.30" waitingTime="0.00" waitingCount="0" stopTime="0.00" timeLoss="0.00" rerouteNo="0" devices="tripinfo_S_60" vType="car9@S_60" speedFactor="1.08" vaporized=""/>
    <tripinfo id="R_62" depart="241.00" departLane="3_0" departPos="5.10" departSpeed="11.18" departDelay="0.00" arrival="277.30" arrivalLane="-2_0" arrivalPos="200.00" arrivalSpeed="11.18" duration="36.30" routeLength="400.06" waitingTime="0.00" waitingCount="0" stopTime="0.00" timeLoss="-2.68" rerouteNo="0" devices="tripinfo_R_62" vType="car5@R_62" speedFactor="1.02" vaporized=""/>
    <tripinfo id="R_64" depart="244.00" departLane="3_2" departPos="7.10" departSpeed="11.18" departDelay="0.00" arrival="279.70" arrivalLane="-2_0" arrivalPos="200.00" arrivalSpeed="11.18" duration="35.70" routeLength="398.06" waitingTime="0.00" waitingCount="0" stopTime="0.00" timeLoss="-2.67" rerouteNo="0" devices="tripinfo_R_64" vType="car7@R_64" speedFactor="0.94" vaporized=""/>
    <tripinfo id="S_65" depart="246.00" departLane="3_2" departPos="6.10" departSpeed="11.18" departDelay="0.00" arrival="283.30" arrivalLane="-1_2" arrivalPos="200.00" arrivalSpeed="11.18" duration="37.30" routeLength="416.30" waitingTime="0.00" waitingCount="0" stopTime="0.00" timeLoss="0.00" rerouteNo="0" devices="tripinfo_S_65" vType="car6@S_65" speedFactor="0.88" vaporized=""/>
    <tripinfo id="L_63" depart="242.00" departLane="4_0" departPos="9.10" departSpeed="11.18" departDelay="0.00" arrival="285.80" arrivalLane="-1_2" arrivalPos="200.00" arrivalSpeed="11.18" duration="43.80" routeLength="410.45" waitingTime="5.90" waitingCount="1" stopTime="0.00" timeLoss="-4528.78" rerouteNo="0" devices="tripinfo_L_63" vType="car9@L_63" speedFactor="0.99" vaporized=""/>
    <tripinfo id="R_67" depart="256.00" departLane="4_1" departPos="6.10" departSpeed="11.18" departDelay="0.00" arrival="291.80" arrivalLane="-3_0" arrivalPos="200.00" arrivalSpeed="11.18" duration="35.80" routeLength="399.06" waitingTime="0.00" waitingCount="0" stopTime="0.00" timeLoss="-2.69" rerouteNo="0" devices="tripinfo_R_67" vType="car6@R_67" speedFactor="0.91" vaporized=""/>
    <tripinfo id="S_66" depart="255.00" departLane="1_1" departPos="6.10" departSpeed="11.18" departDelay="0.00" arrival="292.30" arrivalLane="-3_2" arrivalPos="200.00" arrivalSpeed="11.18" duration="37.30" routeLength="416.30" waitingTime="0.00" waitingCount="0" stopTime="0.00" timeLoss="0.00" rerouteNo="0" devices="tripinfo_S_66" vType="car6@S_66" speedFactor="0.91" vaporized=""/>
    <tripinfo id="S_68" depart="262.00" departLane="4_0" departPos="5.10" departSpeed="11.18" departDelay="0.00" arrival="299.40" arrivalLane="-2_2" arrivalPos="200.00" arrivalSpeed="11.18" duration="37.40" routeLength="417.30" waitingTime="0.00" waitingCount="0" stopTime="0.00" timeLoss="0.00" rerouteNo="0" devices="tripinfo_S_68" vType="car5@S_68" speedFactor="1.04" vaporized=""/>
    <tripinfo id="L_70" depart="270.00" departLane="4_0" departPos="9.10" departSpeed="11.18" departDelay="0.00" arrival="307.00" arrivalLane="-1_2" arrivalPos="200.00" arrivalSpeed="11.18" duration="37.00" routeLength="410.45" waitingTime="0.00" waitingCount="0" stopTime="0.00" timeLoss="-2.23" rerouteNo="0" devices="tripinfo_L_70" vType="car9@L_70" speedFactor="1.02" vaporized=""/>
    <tripinfo id="L_69" depart="270.00" departLane="2_0" departPos="5.10" departSpeed="11.18" departDelay="0.00" arrival="307.30" arrivalLane="-3_2" arrivalPos="200.00" arrivalSpeed="11.18" duration="37.30" routeLength="414.45" waitingTime="0.00" waitingCount="0" stopTime="0.00" timeLoss="-2.22" rerouteNo="0" devices="tripinfo_L_69" vType="car5@L_69" speedFactor="1.02" vaporized=""/>
    <tripinfo id="L_71" depart="271.00" departLane="1_1" departPos="8.10" departSpeed="11.18" departDelay="0.00" arrival="309.70" arrivalLane="-2_2" arrivalPos="200.00" arrivalSpeed="11.18" duration="38.70" routeLength="411.45" waitingTime="0.00" waitingCount="0" stopTime="0.00" timeLoss="-2.44" rerouteNo="0" devices="tripinfo_L_71" vType="car8@L_71" speedFactor="0.97" vaporized=""/>
    <tripinfo id="S_72" depart="276.00" departLane="3_1" departPos="6.10" departSpeed="11.18" departDelay="0.00" arrival="313.30" arrivalLane="-1_2" arrivalPos="200.00" arrivalSpeed="11.18" duration="37.30" routeLength="416.30" waitingTime="0.00" waitingCount="0" stopTime="0.00" timeLoss="0.00" rerouteNo="0" devices="tripinfo_S_72" vType="car6@S_72" speedFactor="0.94" vaporized=""/>
    <tripinfo id="R_74" depart="278.00" departLane="4_0" departPos="7.10" departSpeed="11.18" departDelay="0.00" arrival="313.70" arrivalLane="-3_0" arrivalPos="200.00" arrivalSpeed="11.18" duration="35.70" routeLength="398.06" waitingTime="0.00" waitingCount="0" stopTime="0.00" timeLoss="-2.65" rerouteNo="0" devices="tripinfo_R_74" vType="car7@R_74" speedFactor="0.96" vaporized=""/>