<?xml version="1.0" encoding="UTF-8"?>

<!-- generated on 2022-05-31 21:17:12 by Eclipse SUMO GUI Version 1.9.2
<configuration xmlns:xsi="http://www.w3.org/2001/XMLSchema-instance" xsi:noNamespaceSchemaLocation="http://sumo.dlr.de/xsd/sumoConfiguration.xsd">

    <input>
        <net-file value="data/lane3.net.xml"/>
        <route-files value="data/icacc+.rou.xml"/>
        <additional-files value="data/icacc+.det.xml"/>
    </input>

    <output>
        <tripinfo-output value="tripinfo.xml"/>
    </output>

    <time>
        <begin value="0"/>
        <step-length value="0.1"/>
    </time>

    <processing>
        <collision.mingap-factor value="0"/>
        <time-to-teleport value="-1"/>
        <lanechange.duration value="0.5"/>
    </processing>

    <report>
        <verbose value="true"/>
        <no-step-log value="true"/>
    </report>

    <traci_server>
        <remote-port value="50453"/>
    </traci_server>

    <gui_only>
        <start value="true"/>
        <tracker-interval value="0.1"/>
    </gui_only>

</configuration>
-->

<tripinfos xmlns:xsi="http://www.w3.org/2001/XMLSchema-instance" xsi:noNamespaceSchemaLocation="http://sumo.dlr.de/xsd/tripinfo_file.xsd">
    <tripinfo id="R_0_11" depart="11.00" departLane="4_0" departPos="8.10" departSpeed="11.18" departDelay="0.00" arrival="46.60" arrivalLane="-3_0" arrivalPos="200.00" arrivalSpeed="11.18" duration="35.60" routeLength="397.06" waitingTime="0.00" waitingCount="0" stopTime="0.00" timeLoss="-2.55" rerouteNo="0" devices="tripinfo_R_0_11" vType="car8@R_0_11" speedFactor="1.06" vaporized=""/>
    <tripinfo id="R_2_19" depart="19.00" departLane="3_1" departPos="7.10" departSpeed="11.18" departDelay="0.00" arrival="54.70" arrivalLane="-2_0" arrivalPos="200.00" arrivalSpeed="11.18" duration="35.70" routeLength="398.06" waitingTime="0.00" waitingCount="0" stopTime="0.00" timeLoss="-2.59" rerouteNo="0" devices="tripinfo_R_2_19" vType="car7@R_2_19" speedFactor="1.01" vaporized=""/>
    <tripinfo id="S_1_18" depart="18.00" departLane="2_2" departPos="5.10" departSpeed="11.18" departDelay="0.00" arrival="55.40" arrivalLane="-4_2" arrivalPos="200.00" arrivalSpeed="11.18" duration="37.40" routeLength="417.30" waitingTime="0.00" waitingCount="0" stopTime="0.00" timeLoss="0.00" rerouteNo="0" devices="tripinfo_S_1_18" vType="car5@S_1_18" speedFactor="0.94" vaporized=""/>
    <tripinfo id="R_3_23" depart="23.00" departLane="1_0" departPos="8.10" departSpeed="11.18" departDelay="0.00" arrival="58.60" arrivalLane="-4_0" arrivalPos="200.00" arrivalSpeed="11.18" duration="35.60" routeLength="397.06" waitingTime="0.00" waitingCount="0" stopTime="0.00" timeLoss="-2.53" rerouteNo="0" devices="tripinfo_R_3_23" vType="car8@R_3_23" speedFactor="1.08" vaporized=""/>
    <tripinfo id="R_4_26" depart="26.00" departLane="3_1" departPos="9.10" departSpeed="11.18" departDelay="0.00" arrival="61.50" arrivalLane="-2_0" arrivalPos="200.00" arrivalSpeed="11.18" duration="35.50" routeLength="396.06" waitingTime="0.00" waitingCount="0" stopTime="0.00" timeLoss="-2.65" rerouteNo="0" devices="tripinfo_R_4_26" vType="car9@R_4_26" speedFactor="1.03" vaporized=""/>
    <tripinfo id="L_5_29" depart="29.00" departLane="2_1" departPos="8.10" departSpeed="11.18" departDelay="0.00" arrival="66.10" arrivalLane="-3_2" arrivalPos="200.00" arrivalSpeed="11.18" duration="37.10" routeLength="411.45" waitingTime="0.00" waitingCount="0" stopTime="0.00" timeLoss="-2.71" rerouteNo="0" devices="tripinfo_L_5_29" vType="car8@L_5_29" speedFactor="0.83" vaporized=""/>
    <tripinfo id="R_6_30" depart="30.00" departLane="3_1" departPos="7.10" departSpeed="11.18" departDelay="0.00" arrival="66.70" arrivalLane="-2_2" arrivalPos="200.00" arrivalSpeed="11.18" duration="36.70" routeLength="408.38" waitingTime="0.00" waitingCount="0" stopTime="0.00" timeLoss="-2.35" rerouteNo="0" devices="tripinfo_R_6_30" vType="car7@R_6_30" speedFactor="1.05" vaporized=""/>
    <tripinfo id="L_7_39" depart="39.00" departLane="3_2" departPos="6.10" departSpeed="11.18" departDelay="0.00" arrival="76.20" arrivalLane="-4_2" arrivalPos="200.00" arrivalSpeed="11.18" duration="37.20" routeLength="413.45" waitingTime="0.00" waitingCount="0" stopTime="0.00" timeLoss="-2.54" rerouteNo="0" devices="tripinfo_L_7_39" vType="car6@L_7_39" speedFactor="0.89" vaporized=""/>
    <tripinfo id="L_8_48" depart="48.00" departLane="1_0" departPos="9.10" departSpeed="11.18" departDelay="0.00" arrival="85.00" arrivalLane="-2_2" arrivalPos="200.00" arrivalSpeed="11.18" duration="37.00" routeLength="410.45" waitingTime="0.00" waitingCount="0" stopTime="0.00" timeLoss="-2.42" rerouteNo="0" devices="tripinfo_L_8_48" vType="car9@L_8_48" speedFactor="0.94" vaporized=""/>
    <tripinfo id="S_9_56" depart="56.00" departLane="4_0" departPos="5.10" departSpeed="11.18" departDelay="0.00" arrival="93.40" arrivalLane="-2_1" arrivalPos="200.00" arrivalSpeed="11.18" duration="37.40" routeLength="417.30" waitingTime="0.00" waitingCount="0" stopTime="0.00" timeLoss="0.00" rerouteNo="0" devices="tripinfo_S_9_56" vType="car5@S_9_56" speedFactor="0.86" vaporized=""/>
    <tripinfo id="R_10_60" depart="60.00" departLane="1_0" departPos="9.10" departSpeed="11.18" departDelay="0.00" arrival="95.50" arrivalLane="-4_0" arrivalPos="200.00" arrivalSpeed="11.18" duration="35.50" routeLength="396.06" waitingTime="0.00" waitingCount="0" stopTime="0.00" timeLoss="-2.59" rerouteNo="0" devices="tripinfo_R_10_60" vType="car9@R_10_60" speedFactor="1.09" vaporized=""/>
    <tripinfo id="L_11_79" depart="79.00" departLane="1_2" departPos="5.10" departSpeed="11.18" departDelay="0.00" arrival="116.30" arrivalLane="-2_2" arrivalPos="200.00" arrivalSpeed="11.18" duration="37.30" routeLength="414.45" waitingTime="0.00" waitingCount="0" stopTime="0.00" timeLoss="-2.21" rerouteNo="0" devices="tripinfo_L_11_79" vType="car5@L_11_79" speedFactor="1.03" vaporized=""/>
    <tripinfo id="R_12_83" depart="83.00" departLane="1_1" departPos="9.10" departSpeed="11.18" departDelay="0.00" arrival="118.50" arrivalLane="-4_0" arrivalPos="200.00" arrivalSpeed="11.18" duration="35.50" routeLength="396.06" waitingTime="0.00" waitingCount="0" stopTime="0.00" timeLoss="-2.64" rerouteNo="0" devices="tripinfo_R_12_83" vType="car9@R_12_83" speedFactor="1.05" vaporized=""/>
    <tripinfo id="R_13_85" depart="85.00" departLane="1_1" departPos="5.10" departSpeed="11.18" departDelay="0.00" arrival="120.90" arrivalLane="-4_0" arrivalPos="200.00" arrivalSpeed="11.18" duration="35.90" routeLength="400.06" waitingTime="0.00" waitingCount="0" stopTime="0.00" timeLoss="-2.49" rerouteNo="0" devices="tripinfo_R_13_85" vType="car5@R_13_85" speedFactor="1.12" vaporized=""/>
    <tripinfo id="L_14_92" depart="92.00" departLane="3_2" departPos="5.10" departSpeed="11.18" departDelay="0.00" arrival="129.30" arrivalLane="-4_2" arrivalPos="200.00" arrivalSpeed="11.18" duration="37.30" routeLength="414.45" waitingTime="0.00" waitingCount="0" stopTime="0.00" timeLoss="-2.28" rerouteNo="0" devices="tripinfo_L_14_92" vType="car5@L_14_92" speedFactor="0.99" vaporized=""/>
    <tripinfo id="S_15_94" depart="94.00" departLane="1_0" departPos="9.10" departSpeed="11.18" departDelay="0.00" arrival="131.00" arrivalLane="-3_1" arrivalPos="200.00" arrivalSpeed="11.18" duration="37.00" routeLength="413.30" waitingTime="0.00" waitingCount="0" stopTime="0.00" timeLoss="0.00" rerouteNo="0" devices="tripinfo_S_15_94" vType="car9@S_15_94" speedFactor="0.93" vaporized=""/>
    <tripinfo id="L_16_94" depart="94.00" departLane="2_2" departPos="9.10" departSpeed="11.18" departDelay="0.00" arrival="131.00" arrivalLane="-3_2" arrivalPos="200.00" arrivalSpeed="11.18" duration="37.00" routeLength="410.45" waitingTime="0.00" waitingCount="0" stopTime="0.00" timeLoss="-2.57" rerouteNo="0" devices="tripinfo_L_16_94" vType="car9@L_16_94" speedFactor="0.88" vaporized=""/>
    <tripinfo id="S_17_98" depart="98.00" departLane="4_2" departPos="6.10" departSpeed="11.18" departDelay="0.00" arrival="135.30" arrivalLane="-2_2" arrivalPos="200.00" arrivalSpeed="11.18" duration="37.30" routeLength="416.30" waitingTime="0.00" waitingCount="0" stopTime="0.00" timeLoss="0.00" rerouteNo="0" devices="tripinfo_S_17_98" vType="car6@S_17_98" speedFactor="0.94" vaporized=""/>
    <tripinfo id="R_19_108" depart="108.00" departLane="2_2" departPos="6.10" departSpeed="11.18" departDelay="0.00" arrival="143.80" arrivalLane="-1_0" arrivalPos="200.00" arrivalSpeed="11.18" duration="35.80" routeLength="399.06" waitingTime="0.00" waitingCount="0" stopTime="0.00" timeLoss="-2.47" rerouteNo="0" devices="tripinfo_R_19_108" vType="car6@R_19_108" speedFactor="1.16" vaporized=""/>
    <tripinfo id="L_18_107" depart="107.00" departLane="1_0" departPos="9.10" departSpeed="11.18" departDelay="0.00" arrival="144.00" arrivalLane="-2_2" arrivalPos="200.00" arrivalSpeed="11.18" duration="37.00" routeLength="410.45" waitingTime="0.00" waitingCount="0" stopTime="0.00" timeLoss="-2.42" rerouteNo="0" devices="tripinfo_L_18_107" vType="car9@L_18_107" speedFactor="0.94" vaporized=""/>
    <tripinfo id="S_20_120" depart="120.00" departLane="2_2" departPos="6.10" departSpeed="11.18" departDelay="0.00" arrival="157.30" arrivalLane="-4_2" arrivalPos="200.00" arrivalSpeed="11.18" duration="37.30" routeLength="416.30" waitingTime="0.00" waitingCount="0" stopTime="0.00" timeLoss="0.00" rerouteNo="0" devices="tripinfo_S_20_120" vType="car6@S_20_120" speedFactor="1.02" vaporized=""/>
    <tripinfo id="R_21_123" depart="123.00" departLane="4_0" departPos="6.10" departSpeed="11.18" departDelay="0.00" arrival="158.80" arrivalLane="-3_0" arrivalPos="200.00" arrivalSpeed="11.18" duration="35.80" routeLength="399.06" waitingTime="0.00" waitingCount="0" stopTime="0.00" timeLoss="-2.59" rerouteNo="0" devices="tripinfo_R_21_123" vType="car6@R_21_123" speedFactor="1.01" vaporized=""/>
    <tripinfo id="R_22_126" depart="126.00" departLane="2_0" departPos="6.10" departSpeed="11.18" departDelay="0.00" arrival="161.80" arrivalLane="-1_0" arrivalPos="200.00" arrivalSpeed="11.18" duration="35.80" routeLength="399.06" waitingTime="0.00" waitingCount="0" stopTime="0.00" timeLoss="-2.63" rerouteNo="0" devices="tripinfo_R_22_126" vType="car6@R_22_126" speedFactor="0.98" vaporized=""/>
    <tripinfo id="R_23_130" depart="130.00" departLane="4_0" departPos="7.10" departSpeed="11.18" departDelay="0.00" arrival="165.70" arrivalLane="-3_0" arrivalPos="200.00" arrivalSpeed="11.18" duration="35.70" routeLength="398.06" waitingTime="0.00" waitingCount="0" stopTime="0.00" timeLoss="-2.73" rerouteNo="0" devices="tripinfo_R_23_130" vType="car7@R_23_130" speedFactor="0.89" vaporized=""/>
    <tripinfo id="L_24_134" depart="134.00" departLane="2_0" departPos="7.10" departSpeed="11.18" departDelay="0.00" arrival="171.20" arrivalLane="-3_2" arrivalPos="200.00" arrivalSpeed="11.18" duration="37.20" routeLength="412.45" waitingTime="0.00" waitingCount="0" stopTime="0.00" timeLoss="-2.73" rerouteNo="0" devices="tripinfo_L_24_134" vType="car7@L_24_134" speedFactor="0.83" vaporized=""/>
    <tripinfo id="S_26_136" depart="136.00" departLane="4_2" departPos="6.10" departSpeed="11.18" departDelay="0.00" arrival="173.30" arrivalLane="-2_1" arrivalPos="200.00" arrivalSpeed="11.18" duration="37.30" routeLength="416.30" waitingTime="0.00" waitingCount="0" stopTime="0.00" timeLoss="0.00" rerouteNo="0" devices="tripinfo_S_26_136" vType="car6@S_26_136" speedFactor="0.92" vaporized=""/>
    <tripinfo id="L_25_135" depart="135.00" departLane="3_1" departPos="8.10" departSpeed="11.18" departDelay="0.00" arrival="174.80" arrivalLane="-4_2" arrivalPos="200.00" arrivalSpeed="11.18" duration="39.80" routeLength="411.45" waitingTime="0.00" waitingCount="0" stopTime="0.00" timeLoss="-2.84" rerouteNo="0" devices="tripinfo_L_25_135" vType="car8@L_25_135" speedFactor="0.87" vaporized=""/>
    <tripinfo id="L_27_140" depart="140.00" departLane="4_2" departPos="5.10" departSpeed="11.18" departDelay="0.00" arrival="177.50" arrivalLane="-1_2" arrivalPos="200.00" arrivalSpeed="11.18" duration="37.50" routeLength="414.45" waitingTime="0.00" waitingCount="0" stopTime="0.00" timeLoss="-2.38" rerouteNo="0" devices="tripinfo_L_27_140" vType="car5@L_27_140" speedFactor="0.95" vaporized=""/>
    <tripinfo id="R_28_145" depart="145.00" departLane="3_0" departPos="7.10" departSpeed="11.18" departDelay="0.00" arrival="180.70" arrivalLane="-2_0" arrivalPos="200.00" arrivalSpeed="11.18" duration="35.70" routeLength="398.06" waitingTime="0.00" waitingCount="0" stopTime="0.00" timeLoss="-2.49" rerouteNo="0" devices="tripinfo_R_28_145" vType="car7@R_28_145" speedFactor="1.13" vaporized=""/>
    <tripinfo id="S_29_149" depart="149.00" departLane="3_2" departPos="6.10" departSpeed="11.18" departDelay="0.00" arrival="186.30" arrivalLane="-1_1" arrivalPos="200.00" arrivalSpeed="11.18" duration="37.30" routeLength="416.30" waitingTime="0.00" waitingCount="0" stopTime="0.00" timeLoss="0.00" rerouteNo="0" devices="tripinfo_S_29_149" vType="car6@S_29_149" speedFactor="0.93" vaporized=""/>
    <tripinfo id="S_30_153" depart="153.00" departLane="1_2" departPos="9.10" departSpeed="11.18" departDelay="0.00" arrival="190.00" arrivalLane="-3_2" arrivalPos="200.00" arrivalSpeed="11.18" duration="37.00" routeLength="413.30" waitingTime="0.00" waitingCount="0" stopTime="0.00" timeLoss="0.00" rerouteNo="0" devices="tripinfo_S_30_153" vType="car9@S_30_153" speedFactor="1.18" vaporized=""/>
    <tripinfo id="R_31_157" depart="157.00" departLane="1_0" departPos="7.10" departSpeed="11.18" departDelay="0.00" arrival="192.70" arrivalLane="-4_0" arrivalPos="200.00" arrivalSpeed="11.18" duration="35.70" routeLength="398.06" waitingTime="0.00" waitingCount="0" stopTime="0.00" timeLoss="-2.47" rerouteNo="0" devices="tripinfo_R_31_157" vType="car7@R_31_157" speedFactor="1.15" vaporized=""/>
    <tripinfo id="S_32_162" depart="162.00" departLane="4_0" departPos="7.10" departSpeed="11.18" departDelay="0.00" arrival="199.20" arrivalLane="-2_2" arrivalPos="200.00" arrivalSpeed="11.18" duration="37.20" routeLength="415.30" waitingTime="0.00" waitingCount="0" stopTime="0.00" timeLoss="0.00" rerouteNo="0" devices="tripinfo_S_32_162" vType="car7@S_32_162" speedFactor="1.01" vaporized=""/>
    <tripinfo id="L_33_172" depart="172.00" departLane="4_0" departPos="5.10" departSpeed="11.18" departDelay="0.00" arrival="209.30" arrivalLane="-1_2" arrivalPos="200.00" arrivalSpeed="11.18" duration="37.30" routeLength="414.45" waitingTime="0.00" waitingCount="0" stopTime="0.00" timeLoss="-2.12" rerouteNo="0" devices="tripinfo_L_33_172" vType="car5@L_33_172" speedFactor="1.17" vaporized=""/>
    <tripinfo id="L_34_173" depart="173.00" departLane="2_2" departPos="9.10" departSpeed="11.18" departDelay="0.00" arrival="210.00" arrivalLane="-3_2" arrivalPos="200.00" arrivalSpeed="11.18" duration="37.00" routeLength="410.45" waitingTime="0.00" waitingCount="0" stopTime="0.00" timeLoss="-2.29" rerouteNo="0" devices="tripinfo_L_34_173" vType="car9@L_34_173" speedFactor="0.99" vaporized=""/>
    <tripinfo id="S_35_176" depart="176.00" departLane="1_0" departPos="5.10" departSpeed="11.18" departDelay="0.00" arrival="213.40" arrivalLane="-3_1" arrivalPos="200.00" arrivalSpeed="11.18" duration="37.40" routeLength="417.30" waitingTime="0.00" waitingCount="0" stopTime="0.00" timeLoss="0.00" rerouteNo="0" devices="tripinfo_S_35_176" vType="car5@S_35_176" speedFactor="1.02" vaporized=""/>
    <tripinfo id="S_36_177" depart="177.00" departLane="2_0" departPos="7.10" departSpeed="11.18" departDelay="0.00" arrival="214.20" arrivalLane="-4_1" arrivalPos="200.00" arrivalSpeed="11.18" duration="37.20" routeLength="415.30" waitingTime="0.00" waitingCount="0" stopTime="0.00" timeLoss="0.00" rerouteNo="0" devices="tripinfo_S_36_177" vType="car7@S_36_177" speedFactor="0.97" vaporized=""/>
    <tripinfo id="S_37_178" depart="178.10" departLane="2_1" departPos="5.10" departSpeed="11.18" departDelay="0.10" arrival="215.50" arrivalLane="-4_2" arrivalPos="200.00" arrivalSpeed="11.18" duration="37.40" routeLength="417.30" waitingTime="0.00" waitingCount="0" stopTime="0.00" timeLoss="0.00" rerouteNo="0" devices="tripinfo_S_37_178" vType="car5@S_37_178" speedFactor="1.18" vaporized=""/>
    <tripinfo id="S_38_181" depart="181.00" departLane="1_1" departPos="5.10" departSpeed="11.18" departDelay="0.00" arrival="218.40" arrivalLane="-3_2" arrivalPos="200.00" arrivalSpeed="11.18" duration="37.40" routeLength="417.30" waitingTime="0.00" waitingCount="0" stopTime="0.00" timeLoss="0.00" rerouteNo="0" devices="tripinfo_S_38_181" vType="car5@S_38_181" speedFactor="1.10" vaporized=""/>
    <tripinfo id="S_39_187" depart="187.00" departLane="2_2" departPos="6.10" departSpeed="11.18" departDelay="0.00" arrival="224.30" arrivalLane="-4_0" arrivalPos="200.00" arrivalSpeed="11.18" duration="37.30" routeLength="416.30" waitingTime="0.00" waitingCount="0" stopTime="0.00" timeLoss="0.00" rerouteNo="0" devices="tripinfo_S_39_187" vType="car6@S_39_187" speedFactor="0.90" vaporized=""/>
    <tripinfo id="S_40_195" depart="195.00" departLane="3_2" departPos="8.10" departSpeed="11.18" departDelay="0.00" arrival="232.10" arrivalLane="-1_2" arrivalPos="200.00" arrivalSpeed="11.18" duration="37.10" routeLength="414.30" waitingTime="0.00" waitingCount="0" stopTime="0.00" timeLoss="0.00" rerouteNo="0" devices="tripinfo_S_40_195" vType="car8@S_40_195" speedFactor="1.03" vaporized=""/>
    <tripinfo id="R_42_197" depart="197.00" departLane="3_0" departPos="7.10" departSpeed="11.18" departDelay="0.00" arrival="232.70" arrivalLane="-2_0" arrivalPos="200.00" arrivalSpeed="11.18" duration="35.70" routeLength="398.06" waitingTime="0.00" waitingCount="0" stopTime="0.00" timeLoss="-2.52" rerouteNo="0" devices="tripinfo_R_42_197" vType="car7@R_42_197" speedFactor="1.09" vaporized=""/>
    <tripinfo id="S_41_197" depart="197.00" departLane="1_2" departPos="9.10" departSpeed="11.18" departDelay="0.00" arrival="234.00" arrivalLane="-3_2" arrivalPos="200.00" arrivalSpeed="11.18" duration="37.00" routeLength="413.30" waitingTime="0.00" waitingCount="0" stopTime="0.00" timeLoss="0.00" rerouteNo="0" devices="tripinfo_S_41_197" vType="car9@S_41_197" speedFactor="0.96" vaporized=""/>
    <tripinfo id="L_43_201" depart="201.00" departLane="3_0" departPos="9.10" departSpeed="11.18" departDelay="0.00" arrival="238.00" arrivalLane="-4_2" arrivalPos="200.00" arrivalSpeed="11.18" duration="37.00" routeLength="410.45" waitingTime="0.00" waitingCount="0" stopTime="0.00" timeLoss="-2.20" rerouteNo="0" devices="tripinfo_L_43_201" vType="car9@L_43_201" speedFactor="1.04" vaporized=""/>
    <tripinfo id="S_44_202" depart="202.00" departLane="2_1" departPos="7.10" departSpeed="11.18" departDelay="0.00" arrival="239.20" arrivalLane="-4_1" arrivalPos="200.00" arrivalSpeed="11.18" duration="37.20" routeLength="415.30" waitingTime="0.00" waitingCount="0" stopTime="0.00" timeLoss="0.00" rerouteNo="0" devices="tripinfo_S_44_202" vType="car7@S_44_202" speedFactor="1.04" vaporized=""/>
    <tripinfo id="S_45_213" depart="213.00" departLane="1_1" departPos="9.10" departSpeed="11.18" departDelay="0.00" arrival="250.00" arrivalLane="-3_2" arrivalPos="200.00" arrivalSpeed="11.18" duration="37.00" routeLength="413.30" waitingTime="0.00" waitingCount="0" stopTime="0.00" timeLoss="0.00" rerouteNo="0" devices="tripinfo_S_45_213" vType="car9@S_45_213" speedFactor="1.09" vaporized=""/>
    <tripinfo id="R_46_217" depart="217.00" departLane="4_2" departPos="8.10" departSpeed="11.18" departDelay="0.00" arrival="252.60" arrivalLane="-3_0" arrivalPos="200.00" arrivalSpeed="11.18" duration="35.60" routeLength="397.06" waitingTime="0.00" waitingCount="0" stopTime="0.00" timeLoss="-2.61" rerouteNo="0" devices="tripinfo_R_46_217" vType="car8@R_46_217" speedFactor="1.00" vaporized=""/>
    <tripinfo id="L_47_218" depart="218.00" departLane="3_1" departPos="6.10" departSpeed="11.18" departDelay="0.00" arrival="255.70" arrivalLane="-4_1" arrivalPos="200.00" arrivalSpeed="11.18" duration="37.70" routeLength="418.34" waitingTime="0.00" waitingCount="0" stopTime="0.00" timeLoss="-2.30" rerouteNo="0" devices="tripinfo_L_47_218" vType="car6@L_47_218" speedFactor="0.90" vaporized=""/>
    <tripinfo id="S_48_220" depart="220.00" departLane="2_1" departPos="7.10" departSpeed="11.18" departDelay="0.00" arrival="257.20" arrivalLane="-4_0" arrivalPos="200.00" arrivalSpeed="11.18" duration="37.20" routeLength="415.30" waitingTime="0.00" waitingCount="0" stopTime="0.00" timeLoss="0.00" rerouteNo="0" devices="tripinfo_S_48_220" vType="car7@S_48_220" speedFactor="0.88" vaporized=""/>
    <tripinfo id="S_49_223" depart="223.00" departLane="3_0" departPos="6.10" departSpeed="11.18" departDelay="0.00" arrival="260.30" arrivalLane="-1_2" arrivalPos="200.00" arrivalSpeed="11.18" duration="37.30" routeLength="416.30" waitingTime="0.00" waitingCount="0" stopTime="0.00" timeLoss="0.00" rerouteNo="0" devices="tripinfo_S_49_223" vType="car6@S_49_223" speedFactor="0.85" vaporized=""/>
    <tripinfo id="R_50_234" depart="234.00" departLane="4_2" departPos="9.10" departSpeed="11.18" departDelay="0.00" arrival="269.50" arrivalLane="-3_0" arrivalPos="200.00" arrivalSpeed="11.18" duration="35.50" routeLength="396.06" waitingTime="0.00" waitingCount="0" stopTime="0.00" timeLoss="-2.89" rerouteNo="0" devices="tripinfo_R_50_234" vType="car9@R_50_234" speedFactor="0.85" vaporized=""/>
    <tripinfo id="S_51_236" depart="236.00" departLane="1_1" departPos="7.10" departSpeed="11.18" departDelay="0.00" arrival="273.20" arrivalLane="-3_2" arrivalPos="200.00" arrivalSpeed="11.18" duration="37.20" routeLength="415.30" waitingTime="0.00" waitingCount="0" stopTime="0.00" timeLoss="0.00" rerouteNo="0" devices="tripinfo_S_51_236" vType="car7@S_51_236" speedFactor="1.17" vaporized=""/>
    <tripinfo id="S_52_243" depart="243.00" departLane="4_2" departPos="7.10" departSpeed="11.18" departDelay="0.00" arrival="280.20" arrivalLane="-2_2" arrivalPos="200.00" arrivalSpeed="11.18" duration="37.20" routeLength="415.30" waitingTime="0.00" waitingCount="0" stopTime="0.00" timeLoss="0.00" rerouteNo="0" devices="tripinfo_S_52_243" vType="car7@S_52_243" speedFactor="1.02" vaporized=""/>
    <tripinfo id="L_53_266" depart="266.00" departLane="4_1" departPos="8.10" departSpeed="11.18" departDelay="0.00" arrival="303.10" arrivalLane="-1_2" arrivalPos="200.00" arrivalSpeed="11.18" duration="37.10" routeLength="411.45" waitingTime="0.00" waitingCount="0" stopTime="0.00" timeLoss="-2.12" rerouteNo="0" devices="tripinfo_L_53_266" vType="car8@L_53_266" speedFactor="1.10" vaporized=""/>
    <tripinfo id="S_54_281" depart="281.00" departLane="1_0" departPos="9.10" departSpeed="11.18" departDelay="0.00" arrival="318.00" arrivalLane="-3_2" arrivalPos="200.00" arrivalSpeed="11.18" duration="37.00" routeLength="413.30" waitingTime="0.00" waitingCount="0" stopTime="0.00" timeLoss="0.00" rerouteNo="0" devices="tripinfo_S_54_281" vType="car9@S_54_281" speedFactor="1.00" vaporized=""/>
    <tripinfo id="L_55_285" depart="285.00" departLane="3_1" departPos="7.10" departSpeed="11.18" departDelay="0.00" arrival="322.20" arrivalLane="-4_2" arrivalPos="200.00" arrivalSpeed="11.18" duration="37.20" routeLength="412.45" waitingTime="0.00" waitingCount="0" stopTime="0.00" timeLoss="-2.28" rerouteNo="0" devices="tripinfo_L_55_285" vType="car7@L_55_285" speedFactor="1.00" vaporized=""/>
    <tripinfo id="R_56_307" depart="307.00" departLane="3_0" departPos="9.10" departSpeed="11.18" departDelay="0.00" arrival="342.50" arrivalLane="-2_0" arrivalPos="200.00" arrivalSpeed="11.18" duration="35.50" routeLength="396.06" waitingTime="0.00" waitingCount="0" stopTime="0.00" timeLoss="-2.82" rerouteNo="0" devices="tripinfo_R_56_307" vType="car9@R_56_307" speedFactor="0.90" vaporized=""/>
    <tripinfo id="S_57_320" depart="320.00" departLane="2_1" departPos="8.10" departSpeed="11.18" departDelay="0.00" arrival="357.10" arrivalLane="-4_2" arrivalPos="200.00" arrivalSpeed="11.18" duration="37.10" routeLength="414.30" waitingTime="0.00" waitingCount="0" stopTime="0.00" timeLoss="0.00" rerouteNo="0" devices="tripinfo_S_57_320" vType="car8@S_57_320" speedFactor="1.14" vaporized=""/>
    <tripinfo id="R_58_330" depart="330.00" departLane="1_0" departPos="9.10" departSpeed="11.18" departDelay="0.00" arrival="365.50" arrivalLane="-4_0" arrivalPos="200.00" arrivalSpeed="11.18" duration="35.50" routeLength="396.06" waitingTime="0.00" waitingCount="0" stopTime="0.00" timeLoss="-2.66" rerouteNo="0" devices="tripinfo_R_58_330" vType="car9@R_58_330" speedFactor="1.02" vaporized=""/>
    <tripinfo id="S_59_335" depart="335.00" departLane="4_0" departPos="7.10" departSpeed="11.18" departDelay="0.00" arrival="372.20" arrivalLane="-2_2" arrivalPos="200.00" arrivalSpeed="11.18" duration="37.20" routeLength="415.30" waitingTime="0.00" waitingCount="0" stopTime="0.00" timeLoss="0.00" rerouteNo="0" devices="tripinfo_S_59_335" vType="car7@S_59_335" speedFactor="0.97" vaporized=""/>
    <tripinfo id="R_60_360" depart="360.00" departLane="4_0" departPos="6.10" departSpeed="11.18" departDelay="0.00" arrival="395.80" arrivalLane="-3_0" arrivalPos="200.00" arrivalSpeed="11.18" duration="35.80" routeLength="399.06" waitingTime="0.00" waitingCount="0" stopTime="0.00" timeLoss="-2.53" rerouteNo="0" devices="tripinfo_R_60_360" vType="car6@R_60_360" speedFactor="1.08" vaporized=""/>
    <tripinfo id="S_61_368" depart="368.00" departLane="3_0" departPos="9.10" departSpeed="11.18" departDelay="0.00" arrival="405.00" arrivalLane="-1_2" arrivalPos="200.00" arrivalSpeed="11.18" duration="37.00" routeLength="413.30" waitingTime="0.00" waitingCount="0" stopTime="0.00" timeLoss="0.00" rerouteNo="0" devices="tripinfo_S_61_368" vType="car9@S_61_368" speedFactor="1.12" vaporized=""/>
    <tripinfo id="L_62_370" depart="370.00" departLane="1_0" departPos="5.10" departSpeed="11.18" departDelay="0.00" arrival="407.80" arrivalLane="-2_2" arrivalPos="200.00" arrivalSpeed="11.18" duration="37.80" routeLength="414.45" waitingTime="0.00" waitingCount="0" stopTime="0.00" timeLoss="-2.25" rerouteNo="0" devices="tripinfo_L_62_370" vType="car5@L_62_370" speedFactor="1.02" vaporized=""/>
    <tripinfo id="S_63_372" depart="372.00" departLane="4_0" departPos="7.10" departSpeed="11.18" departDelay="0.00" arrival="409.20" arrivalLane="-2_2" arrivalPos="200.00" arrivalSpeed="11.18" duration="37.20" routeLength="415.30" waitingTime="0.00" waitingCount="0" stopTime="0.00" timeLoss="0.00" rerouteNo="0" devices="tripinfo_S_63_372" vType="car7@S_63_372" speedFactor="0.99" vaporized=""/>
    <tripinfo id="R_64_375" depart="375.00" departLane="2_0" departPos="7.10" departSpeed="11.18" departDelay="0.00" arrival="410.70" arrivalLane="-1_0" arrivalPos="200.00" arrivalSpeed="11.18" duration="35.70" routeLength="398.06" waitingTime="0.00" waitingCount="0" stopTime="0.00" timeLoss="-2.67" rerouteNo="0" devices="tripinfo_R_64_375" vType="car7@R_64_375" speedFactor="0.94" vaporized=""/>
    <tripinfo id="R_65_376" depart="376.00" departLane="3_2" departPos="5.10" departSpeed="11.18" departDelay="0.00" arrival="411.90" arrivalLane="-2_0" arrivalPos="200.00" arrivalSpeed="11.18" duration="35.90" routeLength="400.06" waitingTime="0.00" waitingCount="0" stopTime="0.00" timeLoss="-2.73" rerouteNo="0" devices="tripinfo_R_65_376" vType="car5@R_65_376" speedFactor="0.88" vaporized=""/>
    <tripinfo id="S_66_385" depart="385.00" departLane="4_2" departPos="5.10" departSpeed="11.18" departDelay="0.00" arrival="422.40" arrivalLane="-2_2" arrivalPos="200.00" arrivalSpeed="11.18" duration="37.40" routeLength="417.30" waitingTime="0.00" waitingCount="0" stopTime="0.00" timeLoss="0.00" rerouteNo="0" devices="tripinfo_S_66_385" vType="car5@S_66_385" speedFactor="0.91" vaporized=""/>
    <tripinfo id="L_67_393" depart="393.00" departLane="1_2" departPos="7.10" departSpeed="11.18" departDelay="0.00" arrival="430.20" arrivalLane="-2_2" arrivalPos="200.00" arrivalSpeed="11.18" duration="37.20" routeLength="412.45" waitingTime="0.00" waitingCount="0" stopTime="0.00" timeLoss="-2.47" rerouteNo="0" devices="tripinfo_L_67_393" vType="car7@L_67_393" speedFactor="0.91" vaporized=""/>
    <tripinfo id="S_68_397" depart="397.00" departLane="4_1" departPos="8.10" departSpeed="11.18" departDelay="0.00" arrival="434.10" arrivalLane="-2_1" arrivalPos="200.00" arrivalSpeed="11.18" duration="37.10" routeLength="414.30" waitingTime="0.00" waitingCount="0" stopTime="0.00" timeLoss="0.00" rerouteNo="0" devices="tripinfo_S_68_397" vType="car8@S_68_397" speedFactor="1.04" vaporized=""/>
    <tripinfo id="L_69_403" depart="403.00" departLane="2_2" departPos="6.10" departSpeed="11.18" departDelay="0.00" arrival="440.20" arrivalLane="-3_2" arrivalPos="200.00" arrivalSpeed="11.18" duration="37.20" routeLength="413.45" waitingTime="0.00" waitingCount="0" stopTime="0.00" timeLoss="-2.21" rerouteNo="0" devices="tripinfo_L_69_403" vType="car6@L_69_403" speedFactor="1.02" vaporized=""/>
    <tripinfo id="R_70_406" depart="406.00" departLane="3_0" departPos="9.10" departSpeed="11.18" departDelay="0.00" arrival="441.50" arrivalLane="-2_0" arrivalPos="200.00" arrivalSpeed="11.18" duration="35.50" routeLength="396.06" waitingTime="0.00" waitingCount="0" stopTime="0.00" timeLoss="-2.66" rerouteNo="0" devices="tripinfo_R_70_406" vType="car9@R_70_406" speedFactor="1.02" vaporized=""/>
    <tripinfo id="R_71_415" depart="415.00" departLane="2_0" departPos="6.10" departSpeed="11.18" departDelay="0.00" arrival="450.80" arrivalLane="-1_0" arrivalPos="200.00" arrivalSpeed="11.18" duration="35.80" routeLength="399.06" waitingTime="0.00" waitingCount="0" stopTime="0.00" timeLoss="-2.63" rerouteNo="0" devices="tripinfo_R_71_415" vType="car6@R_71_415" speedFactor="0.97" vaporized=""/>