<?xml version="1.0" encoding="UTF-8"?>

<!-- generated on 03/31/20 18:44:40 by Eclipse SUMO GUI Version 1.3.1
<configuration xmlns:xsi="http://www.w3.org/2001/XMLSchema-instance" xsi:noNamespaceSchemaLocation="http://sumo.dlr.de/xsd/sumoConfiguration.xsd">

    <input>
        <net-file value="data/lane2by2.net.xml"/>
        <route-files value="data/icacc+.rou.xml"/>
    </input>

    <output>
        <tripinfo-output value="tripinfo.xml"/>
    </output>

    <time>
        <begin value="0"/>
        <step-length value="0.1"/>
    </time>

    <processing>
        <collision.mingap-factor value="0"/>
    </processing>

    <report>
        <verbose value="true"/>
        <no-step-log value="true"/>
    </report>

    <traci_server>
        <remote-port value="1480"/>
    </traci_server>

    <gui_only>
        <tracker-interval value="0.1"/>
    </gui_only>

</configuration>
-->

<tripinfos xmlns:xsi="http://www.w3.org/2001/XMLSchema-instance" xsi:noNamespaceSchemaLocation="http://sumo.dlr.de/xsd/tripinfo_file.xsd">
    <tripinfo id="car_5" depart="1.00" departLane="001_001_1_1" departPos="5.10" departSpeed="11.18" departDelay="0.00" arrival="40.80" arrivalLane="001_000_2_0" arrivalPos="200.00" arrivalSpeed="10.00" duration="39.80" routeLength="403.93" waitingTime="0.00" waitingCount="0" stopTime="0.00" timeLoss="0.64" rerouteNo="1" devices="tripinfo_car_5" vType="car5@car_5" speedFactor="0.83" vaporized=""/>
    <tripinfo id="car_11" depart="2.00" departLane="001_001_1_2" departPos="9.10" departSpeed="11.18" departDelay="0.00" arrival="41.40" arrivalLane="001_000_2_2" arrivalPos="200.00" arrivalSpeed="10.00" duration="39.40" routeLength="410.25" waitingTime="0.00" waitingCount="0" stopTime="0.00" timeLoss="-0.12" rerouteNo="1" devices="tripinfo_car_11" vType="car9@car_11" speedFactor="1.03" vaporized=""/>
    <tripinfo id="car_9" depart="1.00" departLane="002_002_2_0" departPos="7.10" departSpeed="11.18" departDelay="0.00" arrival="42.30" arrivalLane="003_002_1_1" arrivalPos="200.00" arrivalSpeed="10.00" duration="41.30" routeLength="421.00" waitingTime="0.00" waitingCount="0" stopTime="0.00" timeLoss="-0.28" rerouteNo="1" devices="tripinfo_car_9" vType="car7@car_9" speedFactor="0.86" vaporized=""/>
    <tripinfo id="car_15" depart="3.60" departLane="001_002_2_2" departPos="6.10" departSpeed="11.18" departDelay="0.60" arrival="42.40" arrivalLane="000_002_3_1" arrivalPos="200.00" arrivalSpeed="10.00" duration="38.80" routeLength="408.09" waitingTime="0.00" waitingCount="0" stopTime="0.00" timeLoss="-0.50" rerouteNo="1" devices="tripinfo_car_15" vType="car6@car_15" speedFactor="0.93" vaporized=""/>
    <tripinfo id="car_16" depart="3.00" departLane="002_001_3_1" departPos="5.10" departSpeed="11.18" departDelay="0.00" arrival="43.60" arrivalLane="002_000_2_2" arrivalPos="200.00" arrivalSpeed="10.00" duration="40.60" routeLength="418.12" waitingTime="0.00" waitingCount="0" stopTime="0.00" timeLoss="-0.34" rerouteNo="1" devices="tripinfo_car_16" vType="car5@car_16" speedFactor="0.88" vaporized=""/>
    <tripinfo id="car_18" depart="4.90" departLane="001_001_1_0" departPos="7.10" departSpeed="11.18" departDelay="0.90" arrival="43.60" arrivalLane="001_000_2_1" arrivalPos="200.00" arrivalSpeed="10.00" duration="38.70" routeLength="407.09" waitingTime="0.00" waitingCount="0" stopTime="0.00" timeLoss="-0.48" rerouteNo="1" devices="tripinfo_car_18" vType="car7@car_18" speedFactor="0.94" vaporized=""/>
    <tripinfo id="car_28" depart="7.00" departLane="001_002_2_2" departPos="7.10" departSpeed="11.18" departDelay="0.00" arrival="45.20" arrivalLane="000_002_3_0" arrivalPos="200.00" arrivalSpeed="10.00" duration="38.20" routeLength="401.93" waitingTime="0.00" waitingCount="0" stopTime="0.00" timeLoss="-0.33" rerouteNo="1" devices="tripinfo_car_28" vType="car7@car_28" speedFactor="1.13" vaporized=""/>
    <tripinfo id="car_22" depart="5.00" departLane="002_001_3_1" departPos="6.10" departSpeed="11.18" departDelay="0.00" arrival="46.60" arrivalLane="002_000_2_2" arrivalPos="200.00" arrivalSpeed="10.00" duration="41.60" routeLength="417.12" waitingTime="0.00" waitingCount="0" stopTime="0.00" timeLoss="-0.11" rerouteNo="1" devices="tripinfo_car_22" vType="car6@car_22" speedFactor="0.98" vaporized=""/>
    <tripinfo id="car_32" depart="8.50" departLane="001_002_2_0" departPos="5.10" departSpeed="11.18" departDelay="0.50" arrival="46.90" arrivalLane="000_002_3_0" arrivalPos="200.00" arrivalSpeed="10.00" duration="38.40" routeLength="403.93" waitingTime="0.00" waitingCount="0" stopTime="0.00" timeLoss="-0.48" rerouteNo="1" devices="tripinfo_car_32" vType="car5@car_32" speedFactor="1.01" vaporized=""/>
    <tripinfo id="car_36" depart="8.50" departLane="002_002_3_2" departPos="5.10" departSpeed="11.18" departDelay="0.50" arrival="47.40" arrivalLane="002_003_4_1" arrivalPos="200.00" arrivalSpeed="10.00" duration="38.90" routeLength="409.09" waitingTime="0.00" waitingCount="0" stopTime="0.00" timeLoss="-0.41" rerouteNo="1" devices="tripinfo_car_36" vType="car5@car_36" speedFactor="0.97" vaporized=""/>
    <tripinfo id="car_31" depart="8.00" departLane="001_001_1_1" departPos="5.10" departSpeed="11.18" departDelay="0.00" arrival="48.80" arrivalLane="001_000_2_2" arrivalPos="200.00" arrivalSpeed="10.00" duration="40.80" routeLength="414.25" waitingTime="0.00" waitingCount="0" stopTime="0.00" timeLoss="1.40" rerouteNo="1" devices="tripinfo_car_31" vType="car5@car_31" speedFactor="1.15" vaporized=""/>
    <tripinfo id="car_34" depart="8.00" departLane="001_002_1_1" departPos="6.10" departSpeed="11.18" departDelay="0.00" arrival="49.40" arrivalLane="001_003_4_0" arrivalPos="200.00" arrivalSpeed="10.00" duration="41.40" routeLength="426.39" waitingTime="0.00" waitingCount="0" stopTime="0.00" timeLoss="0.73" rerouteNo="1" devices="tripinfo_car_34" vType="car6@car_34" speedFactor="0.99" vaporized=""/>
    <tripinfo id="car_45" depart="10.00" departLane="002_002_3_0" departPos="6.10" departSpeed="11.18" departDelay="0.00" arrival="49.40" arrivalLane="002_003_4_2" arrivalPos="200.00" arrivalSpeed="10.00" duration="39.40" routeLength="413.25" waitingTime="0.00" waitingCount="0" stopTime="0.00" timeLoss="0.02" rerouteNo="1" devices="tripinfo_car_45" vType="car6@car_45" speedFactor="1.09" vaporized=""/>
    <tripinfo id="car_41" depart="10.00" departLane="001_001_4_1" departPos="8.10" departSpeed="11.18" departDelay="0.00" arrival="49.50" arrivalLane="000_001_3_2" arrivalPos="200.00" arrivalSpeed="10.00" duration="39.50" routeLength="415.11" waitingTime="0.00" waitingCount="0" stopTime="0.00" timeLoss="-0.09" rerouteNo="1" devices="tripinfo_car_41" vType="car8@car_41" speedFactor="0.96" vaporized=""/>
    <tripinfo id="car_35" depart="8.00" departLane="002_002_2_1" departPos="6.10" departSpeed="11.18" departDelay="0.00" arrival="50.30" arrivalLane="003_002_1_2" arrivalPos="200.00" arrivalSpeed="10.00" duration="42.30" routeLength="417.11" waitingTime="0.00" waitingCount="0" stopTime="0.00" timeLoss="2.53" rerouteNo="1" devices="tripinfo_car_35" vType="car6@car_35" speedFactor="1.02" vaporized=""/>
    <tripinfo id="car_46" depart="13.70" departLane="001_001_1_2" departPos="9.10" departSpeed="11.18" departDelay="2.70" arrival="52.20" arrivalLane="001_000_2_1" arrivalPos="200.00" arrivalSpeed="10.00" duration="38.50" routeLength="405.09" waitingTime="0.00" waitingCount="0" stopTime="0.00" timeLoss="-0.39" rerouteNo="1" devices="tripinfo_car_46" vType="car9@car_46" speedFactor="1.00" vaporized=""/>
    <tripinfo id="car_59" depart="14.50" departLane="002_002_3_2" departPos="5.10" departSpeed="11.18" departDelay="0.50" arrival="52.90" arrivalLane="002_003_4_0" arrivalPos="200.00" arrivalSpeed="10.00" duration="38.40" routeLength="403.93" waitingTime="0.00" waitingCount="0" stopTime="0.00" timeLoss="-0.54" rerouteNo="1" devices="tripinfo_car_59" vType="car5@car_59" speedFactor="0.97" vaporized=""/>
    <tripinfo id="car_51" depart="12.00" departLane="001_002_1_0" departPos="6.10" departSpeed="11.18" departDelay="0.00" arrival="53.20" arrivalLane="001_003_4_1" arrivalPos="200.00" arrivalSpeed="10.00" duration="41.20" routeLength="422.00" waitingTime="0.00" waitingCount="0" stopTime="0.00" timeLoss="-0.05" rerouteNo="1" devices="tripinfo_car_51" vType="car6@car_51" speedFactor="1.17" vaporized=""/>
    <tripinfo id="car_57" depart="14.00" departLane="001_001_1_0" departPos="6.10" departSpeed="11.18" departDelay="0.00" arrival="54.10" arrivalLane="001_000_2_0" arrivalPos="200.00" arrivalSpeed="10.00" duration="40.10" routeLength="402.93" waitingTime="0.00" waitingCount="0" stopTime="0.00" timeLoss="-0.64" rerouteNo="1" devices="tripinfo_car_57" vType="car6@car_57" speedFactor="1.14" vaporized=""/>
    <tripinfo id="car_43" depart="10.00" departLane="002_001_3_2" departPos="9.10" departSpeed="11.18" departDelay="0.00" arrival="54.20" arrivalLane="002_000_2_1" arrivalPos="200.00" arrivalSpeed="10.00" duration="44.20" routeLength="419.00" waitingTime="0.00" waitingCount="0" stopTime="0.00" timeLoss="-1.80" rerouteNo="1" devices="tripinfo_car_43" vType="car9@car_43" speedFactor="1.04" vaporized=""/>
    <tripinfo id="car_65" depart="16.00" departLane="001_002_2_0" departPos="9.10" departSpeed="11.18" departDelay="0.00" arrival="54.50" arrivalLane="000_002_3_1" arrivalPos="200.00" arrivalSpeed="10.00" duration="38.50" routeLength="405.09" waitingTime="0.00" waitingCount="0" stopTime="0.00" timeLoss="-0.64" rerouteNo="1" devices="tripinfo_car_65" vType="car9@car_65" speedFactor="0.88" vaporized=""/>
    <tripinfo id="car_58" depart="15.10" departLane="002_002_2_0" departPos="7.10" departSpeed="11.18" departDelay="1.10" arrival="55.30" arrivalLane="003_002_1_2" arrivalPos="200.00" arrivalSpeed="10.00" duration="40.20" routeLength="416.11" waitingTime="0.00" waitingCount="0" stopTime="0.00" timeLoss="-0.00" rerouteNo="1" devices="tripinfo_car_58" vType="car7@car_58" speedFactor="1.02" vaporized=""/>
    <tripinfo id="car_70" depart="17.00" departLane="001_002_2_0" departPos="8.10" departSpeed="11.18" departDelay="0.00" arrival="56.40" arrivalLane="000_002_3_0" arrivalPos="200.00" arrivalSpeed="10.00" duration="39.40" routeLength="400.93" waitingTime="0.00" waitingCount="0" stopTime="0.00" timeLoss="-0.53" rerouteNo="1" devices="tripinfo_car_70" vType="car8@car_70" speedFactor="1.02" vaporized=""/>
    <tripinfo id="car_53" depart="13.00" departLane="002_001_3_2" departPos="9.10" departSpeed="11.18" departDelay="0.00" arrival="57.00" arrivalLane="002_000_2_2" arrivalPos="200.00" arrivalSpeed="10.00" duration="44.00" routeLength="414.12" waitingTime="3.60" waitingCount="1" stopTime="0.00" timeLoss="-4645.63" rerouteNo="1" devices="tripinfo_car_53" vType="car9@car_53" speedFactor="1.10" vaporized=""/>
    <tripinfo id="car_68" depart="16.00" departLane="002_002_2_1" departPos="9.10" departSpeed="11.18" departDelay="0.00" arrival="57.40" arrivalLane="003_002_1_1" arrivalPos="200.00" arrivalSpeed="10.00" duration="41.40" routeLength="419.00" waitingTime="0.00" waitingCount="0" stopTime="0.00" timeLoss="-0.06" rerouteNo="1" devices="tripinfo_car_68" vType="car9@car_68" speedFactor="1.04" vaporized=""/>
    <tripinfo id="car_69" depart="17.00" departLane="001_001_1_1" departPos="6.10" departSpeed="11.18" departDelay="0.00" arrival="57.80" arrivalLane="001_000_2_0" arrivalPos="200.00" arrivalSpeed="10.00" duration="40.80" routeLength="402.93" waitingTime="0.00" waitingCount="0" stopTime="0.00" timeLoss="2.08" rerouteNo="1" devices="tripinfo_car_69" vType="car6@car_69" speedFactor="1.02" vaporized=""/>
    <tripinfo id="car_0" depart="0.00" departLane="001_001_4_2" departPos="9.10" departSpeed="11.18" departDelay="0.00" arrival="57.90" arrivalLane="002_000_2_0" arrivalPos="200.00" arrivalSpeed="10.00" duration="57.90" routeLength="619.29" waitingTime="0.00" waitingCount="0" stopTime="0.00" timeLoss="-0.47" rerouteNo="2" devices="tripinfo_car_0" vType="car9@car_0" speedFactor="1.06" vaporized=""/>
    <tripinfo id="car_84" depart="20.00" departLane="002_002_3_0" departPos="9.10" departSpeed="11.18" departDelay="0.00" arrival="58.00" arrivalLane="002_003_4_0" arrivalPos="200.00" arrivalSpeed="10.00" duration="38.00" routeLength="399.93" waitingTime="0.00" waitingCount="0" stopTime="0.00" timeLoss="-0.32" rerouteNo="1" devices="tripinfo_car_84" vType="car9@car_84" speedFactor="1.15" vaporized=""/>
    <tripinfo id="car_79" depart="19.00" departLane="001_002_1_1" departPos="6.10" departSpeed="11.18" departDelay="0.00" arrival="58.70" arrivalLane="001_003_4_2" arrivalPos="200.00" arrivalSpeed="10.00" duration="39.70" routeLength="417.12" waitingTime="0.00" waitingCount="0" stopTime="0.00" timeLoss="-0.01" rerouteNo="1" devices="tripinfo_car_79" vType="car6@car_79" speedFactor="1.09" vaporized=""/>
    <tripinfo id="car_3" depart="0.00" departLane="001_002_1_0" departPos="8.10" departSpeed="11.18" departDelay="0.00" arrival="59.00" arrivalLane="000_001_3_2" arrivalPos="200.00" arrivalSpeed="10.00" duration="59.00" routeLength="630.61" waitingTime="0.00" waitingCount="0" stopTime="0.00" timeLoss="-0.02" rerouteNo="2" devices="tripinfo_car_3" vType="car8@car_3" speedFactor="1.08" vaporized=""/>
    <tripinfo id="car_6" depart="1.00" departLane="002_001_3_1" departPos="6.10" departSpeed="11.18" departDelay="0.00" arrival="59.40" arrivalLane="003_002_1_1" arrivalPos="200.00" arrivalSpeed="10.00" duration="58.40" routeLength="622.28" waitingTime="0.00" waitingCount="0" stopTime="0.00" timeLoss="-0.57" rerouteNo="2" devices="tripinfo_car_6" vType="car6@car_6" speedFactor="1.05" vaporized=""/>
    <tripinfo id="car_2" depart="0.00" departLane="002_001_4_2" departPos="5.10" departSpeed="11.18" departDelay="0.00" arrival="60.80" arrivalLane="002_003_4_2" arrivalPos="200.00" arrivalSpeed="10.00" duration="60.80" routeLength="649.30" waitingTime="0.00" waitingCount="0" stopTime="0.00" timeLoss="-0.02" rerouteNo="2" devices="tripinfo_car_2" vType="car5@car_2" speedFactor="1.01" vaporized=""/>
    <tripinfo id="car_4" depart="0.00" departLane="002_002_2_0" departPos="8.10" departSpeed="11.18" departDelay="0.00" arrival="61.40" arrivalLane="000_002_3_2" arrivalPos="200.00" arrivalSpeed="10.00" duration="61.40" routeLength="638.46" waitingTime="0.00" waitingCount="0" stopTime="0.00" timeLoss="-0.23" rerouteNo="2" devices="tripinfo_car_4" vType="car8@car_4" speedFactor="1.03" vaporized=""/>
    <tripinfo id="car_71" depart="17.00" departLane="002_001_3_0" departPos="9.10" departSpeed="11.18" departDelay="0.00" arrival="61.90" arrivalLane="002_000_2_1" arrivalPos="200.00" arrivalSpeed="10.00" duration="44.90" routeLength="419.00" waitingTime="4.00" waitingCount="1" stopTime="0.00" timeLoss="-4781.99" rerouteNo="1" devices="tripinfo_car_71" vType="car9@car_71" speedFactor="0.97" vaporized=""/>
    <tripinfo id="car_12" depart="2.00" departLane="001_002_2_2" departPos="6.10" departSpeed="11.18" departDelay="0.00" arrival="63.20" arrivalLane="000_001_3_2" arrivalPos="200.00" arrivalSpeed="10.00" duration="61.20" routeLength="640.46" waitingTime="0.00" waitingCount="0" stopTime="0.00" timeLoss="-0.24" rerouteNo="2" devices="tripinfo_car_12" vType="car6@car_12" speedFactor="1.05" vaporized=""/>
    <tripinfo id="car_7" depart="1.00" departLane="002_001_4_1" departPos="6.10" departSpeed="11.18" departDelay="0.00" arrival="63.90" arrivalLane="002_003_4_2" arrivalPos="200.00" arrivalSpeed="10.00" duration="62.90" routeLength="648.30" waitingTime="0.00" waitingCount="0" stopTime="0.00" timeLoss="-0.09" rerouteNo="2" devices="tripinfo_car_7" vType="car6@car_7" speedFactor="0.89" vaporized=""/>
    <tripinfo id="car_26" depart="6.00" departLane="002_002_2_1" departPos="6.10" departSpeed="11.18" departDelay="0.00" arrival="65.10" arrivalLane="000_002_3_2" arrivalPos="200.00" arrivalSpeed="10.00" duration="59.10" routeLength="630.13" waitingTime="0.00" waitingCount="0" stopTime="0.00" timeLoss="-0.63" rerouteNo="2" devices="tripinfo_car_26" vType="car6@car_26" speedFactor="0.92" vaporized=""/>
    <tripinfo id="car_77" depart="19.00" departLane="002_001_3_0" departPos="6.10" departSpeed="11.18" departDelay="0.00" arrival="65.70" arrivalLane="002_000_2_2" arrivalPos="200.00" arrivalSpeed="10.00" duration="46.70" routeLength="417.12" waitingTime="4.40" waitingCount="2" stopTime="0.00" timeLoss="-4674.56" rerouteNo="1" devices="tripinfo_car_77" vType="car6@car_77" speedFactor="0.98" vaporized=""/>
    <tripinfo id="car_23" depart="5.00" departLane="001_002_1_2" departPos="8.10" departSpeed="11.18" departDelay="0.00" arrival="66.20" arrivalLane="001_000_2_1" arrivalPos="200.00" arrivalSpeed="10.00" duration="61.20" routeLength="633.29" waitingTime="0.00" waitingCount="0" stopTime="0.00" timeLoss="-0.81" rerouteNo="2" devices="tripinfo_car_23" vType="car8@car_23" speedFactor="0.89" vaporized=""/>
    <tripinfo id="car_117" depart="29.00" departLane="001_001_1_1" departPos="8.10" departSpeed="11.18" departDelay="0.00" arrival="67.10" arrivalLane="001_000_2_0" arrivalPos="200.00" arrivalSpeed="10.00" duration="38.10" routeLength="400.93" waitingTime="0.00" waitingCount="0" stopTime="0.00" timeLoss="-0.49" rerouteNo="1" devices="tripinfo_car_117" vType="car8@car_117" speedFactor="1.00" vaporized=""/>
    <tripinfo id="car_103" depart="25.00" departLane="001_002_1_2" departPos="8.10" departSpeed="11.18" departDelay="0.00" arrival="67.30" arrivalLane="001_003_4_2" arrivalPos="200.00" arrivalSpeed="10.00" duration="42.30" routeLength="415.12" waitingTime="1.90" waitingCount="1" stopTime="0.00" timeLoss="-4405.71" rerouteNo="1" devices="tripinfo_car_103" vType="car8@car_103" speedFactor="0.95" vaporized=""/>
    <tripinfo id="car_1" depart="0.00" departLane="001_001_1_1" departPos="7.10" departSpeed="11.18" departDelay="0.00" arrival="69.70" arrivalLane="003_001_1_0" arrivalPos="200.00" arrivalSpeed="10.00" duration="69.70" routeLength="647.30" waitingTime="7.40" waitingCount="1" stopTime="0.00" timeLoss="-4906.44" rerouteNo="2" devices="tripinfo_car_1" vType="car7@car_1" speedFactor="0.94" vaporized=""/>
    <tripinfo id="car_123" depart="31.00" departLane="001_002_2_1" departPos="7.10" departSpeed="11.18" departDelay="0.00" arrival="69.70" arrivalLane="000_002_3_1" arrivalPos="200.00" arrivalSpeed="10.00" duration="38.70" routeLength="407.09" waitingTime="0.00" waitingCount="0" stopTime="0.00" timeLoss="-0.32" rerouteNo="1" devices="tripinfo_car_123" vType="car7@car_123" speedFactor="1.02" vaporized=""/>
    <tripinfo id="car_107" depart="27.00" departLane="001_001_4_0" departPos="7.10" departSpeed="11.18" departDelay="0.00" arrival="71.70" arrivalLane="000_001_3_2" arrivalPos="200.00" arrivalSpeed="10.00" duration="44.70" routeLength="416.11" waitingTime="3.20" waitingCount="2" stopTime="0.00" timeLoss="-3960.33" rerouteNo="1" devices="tripinfo_car_107" vType="car7@car_107" speedFactor="1.03" vaporized=""/>
    <tripinfo id="car_27" depart="7.00" departLane="001_001_1_0" departPos="5.10" departSpeed="11.18" departDelay="0.00" arrival="72.20" arrivalLane="001_003_4_2" arrivalPos="200.00" arrivalSpeed="10.00" duration="65.20" routeLength="645.32" waitingTime="0.00" waitingCount="0" stopTime="0.00" timeLoss="-1.76" rerouteNo="2" devices="tripinfo_car_27" vType="car5@car_27" speedFactor="0.95" vaporized=""/>
    <tripinfo id="car_133" depart="34.00" departLane="001_002_2_1" departPos="8.10" departSpeed="11.18" departDelay="0.00" arrival="72.60" arrivalLane="000_002_3_1" arrivalPos="200.00" arrivalSpeed="10.00" duration="38.60" routeLength="406.09" waitingTime="0.00" waitingCount="0" stopTime="0.00" timeLoss="-0.30" rerouteNo="1" devices="tripinfo_car_133" vType="car8@car_133" speedFactor="1.04" vaporized=""/>
    <tripinfo id="car_20" depart="4.00" departLane="002_001_4_1" departPos="5.10" departSpeed="11.18" departDelay="0.00" arrival="73.20" arrivalLane="002_003_4_0" arrivalPos="200.00" arrivalSpeed="10.00" duration="69.20" routeLength="649.30" waitingTime="0.00" waitingCount="0" stopTime="0.00" timeLoss="-1.27" rerouteNo="2" devices="tripinfo_car_20" vType="car5@car_20" speedFactor="1.02" vaporized=""/>
    <tripinfo id="car_52" depart="13.00" departLane="001_001_4_2" departPos="6.10" departSpeed="11.18" departDelay="0.00" arrival="73.20" arrivalLane="002_000_2_0" arrivalPos="200.00" arrivalSpeed="10.00" duration="60.20" routeLength="617.12" waitingTime="0.00" waitingCount="0" stopTime="0.00" timeLoss="1.71" rerouteNo="2" devices="tripinfo_car_52" vType="car6@car_52" speedFactor="1.02" vaporized=""/>
    <tripinfo id="car_17" depart="3.00" departLane="002_002_2_1" departPos="7.10" departSpeed="11.18" departDelay="0.00" arrival="73.30" arrivalLane="003_001_1_1" arrivalPos="200.00" arrivalSpeed="10.00" duration="70.30" routeLength="648.20" waitingTime="0.00" waitingCount="0" stopTime="0.00" timeLoss="-2.41" rerouteNo="2" devices="tripinfo_car_17" vType="car7@car_17" speedFactor="0.94" vaporized=""/>
    <tripinfo id="car_115" depart="28.00" departLane="002_002_2_0" departPos="6.10" departSpeed="11.18" departDelay="0.00" arrival="73.60" arrivalLane="003_002_1_2" arrivalPos="200.00" arrivalSpeed="10.00" duration="45.60" routeLength="417.11" waitingTime="3.80" waitingCount="2" stopTime="0.00" timeLoss="-4937.94" rerouteNo="1" devices="tripinfo_car_115" vType="car6@car_115" speedFactor="0.92" vaporized=""/>
    <tripinfo id="car_33" depart="8.00" departLane="002_001_4_2" departPos="6.10" departSpeed="11.18" departDelay="0.00" arrival="74.70" arrivalLane="002_003_4_2" arrivalPos="200.00" arrivalSpeed="10.00" duration="66.70" routeLength="648.30" waitingTime="1.80" waitingCount="1" stopTime="0.00" timeLoss="-4031.25" rerouteNo="2" devices="tripinfo_car_33" vType="car6@car_33" speedFactor="1.17" vaporized=""/>
    <tripinfo id="car_14" depart="2.00" departLane="002_002_2_2" departPos="7.10" departSpeed="11.18" departDelay="0.00" arrival="75.00" arrivalLane="003_001_1_2" arrivalPos="200.00" arrivalSpeed="10.00" duration="73.00" routeLength="643.31" waitingTime="10.10" waitingCount="1" stopTime="0.00" timeLoss="-3949.73" rerouteNo="2" devices="tripinfo_car_14" vType="car7@car_14" speedFactor="0.99" vaporized=""/>
    <tripinfo id="car_74" depart="18.00" departLane="002_002_2_0" departPos="7.10" departSpeed="11.18" departDelay="0.00" arrival="75.00" arrivalLane="001_003_4_0" arrivalPos="200.00" arrivalSpeed="10.00" duration="57.00" routeLength="610.96" waitingTime="0.00" waitingCount="0" stopTime="0.00" timeLoss="-1.12" rerouteNo="2" devices="tripinfo_car_74" vType="car7@car_74" speedFactor="0.96" vaporized=""/>
    <tripinfo id="car_102" depart="25.00" departLane="002_001_4_2" departPos="8.10" departSpeed="11.18" departDelay="0.00" arrival="75.10" arrivalLane="003_001_1_1" arrivalPos="200.00" arrivalSpeed="10.00" duration="50.10" routeLength="406.09" waitingTime="9.80" waitingCount="1" stopTime="0.00" timeLoss="-4579.10" rerouteNo="1" devices="tripinfo_car_102" vType="car8@car_102" speedFactor="0.97" vaporized=""/>
    <tripinfo id="car_114" depart="28.00" departLane="001_002_1_1" departPos="8.10" departSpeed="11.18" departDelay="0.00" arrival="75.20" arrivalLane="001_003_4_1" arrivalPos="200.00" arrivalSpeed="10.00" duration="47.20" routeLength="420.00" waitingTime="6.30" waitingCount="1" stopTime="0.00" timeLoss="-4405.62" rerouteNo="1" devices="tripinfo_car_114" vType="car8@car_114" speedFactor="1.10" vaporized=""/>
    <tripinfo id="car_116" depart="29.00" departLane="001_001_4_1" departPos="5.10" departSpeed="11.18" departDelay="0.00" arrival="75.20" arrivalLane="000_001_3_1" arrivalPos="200.00" arrivalSpeed="10.00" duration="46.20" routeLength="423.00" waitingTime="0.00" waitingCount="0" stopTime="0.00" timeLoss="-0.46" rerouteNo="1" devices="tripinfo_car_116" vType="car5@car_116" speedFactor="1.18" vaporized=""/>
    <tripinfo id="car_47" depart="11.00" departLane="002_001_3_2" departPos="9.10" departSpeed="11.18" departDelay="0.00" arrival="75.70" arrivalLane="002_003_4_1" arrivalPos="200.00" arrivalSpeed="10.00" duration="64.70" routeLength="637.45" waitingTime="0.00" waitingCount="0" stopTime="0.00" timeLoss="-1.15" rerouteNo="2" devices="tripinfo_car_47" vType="car9@car_47" speedFactor="0.90" vaporized=""/>
    <tripinfo id="car_148" depart="38.00" departLane="001_002_2_1" departPos="9.10" departSpeed="11.18" departDelay="0.00" arrival="76.00" arrivalLane="000_002_3_0" arrivalPos="200.00" arrivalSpeed="10.00" duration="38.00" routeLength="399.93" waitingTime="0.00" waitingCount="0" stopTime="0.00" timeLoss="-0.54" rerouteNo="1" devices="tripinfo_car_148" vType="car9@car_148" speedFactor="0.97" vaporized=""/>
    <tripinfo id="car_38" depart="10.00" departLane="001_002_2_0" departPos="5.10" departSpeed="11.18" departDelay="1.00" arrival="76.10" arrivalLane="002_003_4_2" arrivalPos="200.00" arrivalSpeed="10.00" duration="66.10" routeLength="641.33" waitingTime="0.00" waitingCount="0" stopTime="0.00" timeLoss="-0.89" rerouteNo="2" devices="tripinfo_car_38" vType="car5@car_38" speedFactor="1.10" vaporized=""/>
    <tripinfo id="car_39" depart="9.80" departLane="002_001_4_2" departPos="8.10" departSpeed="11.18" departDelay="0.80" arrival="76.10" arrivalLane="000_001_3_0" arrivalPos="200.00" arrivalSpeed="10.00" duration="66.30" routeLength="642.31" waitingTime="0.00" waitingCount="0" stopTime="0.00" timeLoss="-0.81" rerouteNo="2" devices="tripinfo_car_39" vType="car8@car_39" speedFactor="0.90" vaporized=""/>
    <tripinfo id="car_44" depart="10.00" departLane="002_001_4_0" departPos="9.10" departSpeed="11.18" departDelay="0.00" arrival="76.90" arrivalLane="000_001_3_2" arrivalPos="200.00" arrivalSpeed="10.00" duration="66.90" routeLength="646.20" waitingTime="0.00" waitingCount="0" stopTime="0.00" timeLoss="-2.35" rerouteNo="2" devices="tripinfo_car_44" vType="car9@car_44" speedFactor="1.04" vaporized=""/>
    <tripinfo id="car_136" depart="35.00" departLane="002_002_3_1" departPos="9.10" departSpeed="11.18" departDelay="0.00" arrival="77.60" arrivalLane="002_003_4_1" arrivalPos="200.00" arrivalSpeed="10.00" duration="42.60" routeLength="405.09" waitingTime="0.00" waitingCount="0" stopTime="0.00" timeLoss="-0.83" rerouteNo="1" devices="tripinfo_car_136" vType="car9@car_136" speedFactor="1.12" vaporized=""/>
    <tripinfo id="car_80" depart="20.00" departLane="001_001_4_0" departPos="5.10" departSpeed="11.18" departDelay="0.00" arrival="77.70" arrivalLane="002_000_2_0" arrivalPos="200.00" arrivalSpeed="10.00" duration="57.70" routeLength="618.12" waitingTime="0.00" waitingCount="0" stopTime="0.00" timeLoss="-0.75" rerouteNo="2" devices="tripinfo_car_80" vType="car5@car_80" speedFactor="1.03" vaporized=""/>
    <tripinfo id="car_101" depart="25.70" departLane="002_001_3_2" departPos="7.10" departSpeed="11.18" departDelay="0.70" arrival="77.70" arrivalLane="002_000_2_2" arrivalPos="200.00" arrivalSpeed="10.00" duration="52.00" routeLength="416.12" waitingTime="8.30" waitingCount="4" stopTime="0.00" timeLoss="-4417.38" rerouteNo="1" devices="tripinfo_car_101" vType="car7@car_101" speedFactor="0.96" vaporized=""/>
    <tripinfo id="car_42" depart="10.30" departLane="001_002_2_0" departPos="8.10" departSpeed="11.18" departDelay="0.30" arrival="77.80" arrivalLane="000_001_3_0" arrivalPos="200.00" arrivalSpeed="10.00" duration="67.50" routeLength="628.13" waitingTime="0.00" waitingCount="0" stopTime="0.00" timeLoss="-2.69" rerouteNo="2" devices="tripinfo_car_42" vType="car8@car_42" speedFactor="1.09" vaporized=""/>
    <tripinfo id="car_40" depart="13.40" departLane="002_002_2_2" departPos="9.10" departSpeed="11.18" departDelay="4.40" arrival="78.00" arrivalLane="000_002_3_2" arrivalPos="200.00" arrivalSpeed="10.00" duration="64.60" routeLength="627.13" waitingTime="0.00" waitingCount="0" stopTime="0.00" timeLoss="-1.76" rerouteNo="2" devices="tripinfo_car_40" vType="car9@car_40" speedFactor="1.03" vaporized=""/>
    <tripinfo id="car_30" depart="7.00" departLane="002_002_3_0" departPos="5.10" departSpeed="11.18" departDelay="0.00" arrival="78.30" arrivalLane="003_001_1_2" arrivalPos="200.00" arrivalSpeed="10.00" duration="71.30" routeLength="641.33" waitingTime="9.10" waitingCount="2" stopTime="0.00" timeLoss="-4828.25" rerouteNo="2" devices="tripinfo_car_30" vType="car5@car_30" speedFactor="1.18" vaporized=""/>
    <tripinfo id="car_126" depart="31.60" departLane="002_002_2_2" departPos="6.10" departSpeed="11.18" departDelay="0.60" arrival="78.60" arrivalLane="003_002_1_2" arrivalPos="200.00" arrivalSpeed="10.00" duration="47.00" routeLength="417.11" waitingTime="3.70" waitingCount="3" stopTime="0.00" timeLoss="-4623.87" rerouteNo="1" devices="tripinfo_car_126" vType="car6@car_126" speedFactor="1.03" vaporized=""/>
    <tripinfo id="car_62" depart="15.00" departLane="002_001_4_2" departPos="6.10" departSpeed="11.18" departDelay="0.00" arrival="78.80" arrivalLane="003_002_1_0" arrivalPos="200.00" arrivalSpeed="10.00" duration="63.80" routeLength="630.13" waitingTime="2.90" waitingCount="2" stopTime="0.00" timeLoss="-4701.13" rerouteNo="2" devices="tripinfo_car_62" vType="car6@car_62" speedFactor="1.02" vaporized=""/>
    <tripinfo id="car_127" depart="32.00" departLane="001_001_4_1" departPos="8.10" departSpeed="11.18" departDelay="0.00" arrival="78.90" arrivalLane="000_001_3_2" arrivalPos="200.00" arrivalSpeed="10.00" duration="46.90" routeLength="415.11" waitingTime="5.50" waitingCount="2" stopTime="0.00" timeLoss="-4969.52" rerouteNo="1" devices="tripinfo_car_127" vType="car8@car_127" speedFactor="0.82" vaporized=""/>
    <tripinfo id="car_49" depart="12.00" departLane="001_001_4_0" departPos="5.10" departSpeed="11.18" departDelay="0.00" arrival="79.20" arrivalLane="001_003_4_1" arrivalPos="200.00" arrivalSpeed="10.00" duration="67.20" routeLength="649.30" waitingTime="0.00" waitingCount="0" stopTime="0.00" timeLoss="-1.19" rerouteNo="2" devices="tripinfo_car_49" vType="car5@car_49" speedFactor="0.85" vaporized=""/>