<?xml version="1.0" encoding="UTF-8"?>

<!-- generated on Wed 21 Oct 2020 04:53:16 AM EDT by Eclipse SUMO GUI Version 1.6.0
<configuration xmlns:xsi="http://www.w3.org/2001/XMLSchema-instance" xsi:noNamespaceSchemaLocation="http://sumo.dlr.de/xsd/sumoConfiguration.xsd">

    <input>
        <net-file value="data/two_inter.net.xml"/>
        <route-files value="data/icacc+.rou.xml"/>
    </input>

    <output>
        <tripinfo-output value="tripinfo.xml"/>
    </output>

    <time>
        <begin value="0"/>
        <step-length value="0.1"/>
    </time>

    <processing>
        <threads value="8"/>
        <collision.mingap-factor value="0"/>
        <time-to-teleport value="-1"/>
        <default.speeddev value="1"/>
    </processing>

    <report>
        <verbose value="true"/>
        <log value="error_log.txt"/>
        <no-step-log value="true"/>
    </report>

    <traci_server>
        <remote-port value="56907"/>
    </traci_server>

    <gui_only>
        <start value="true"/>
        <tracker-interval value="0.1"/>
    </gui_only>

</configuration>
-->

<tripinfos xmlns:xsi="http://www.w3.org/2001/XMLSchema-instance" xsi:noNamespaceSchemaLocation="http://sumo.dlr.de/xsd/tripinfo_file.xsd">
    <tripinfo id="RX_11" depart="1.00" departLane="002_001_4_0" departPos="8.10" departSpeed="11.18" departDelay="0.00" arrival="36.90" arrivalLane="003_001_1_0" arrivalPos="200.00" arrivalSpeed="11.18" duration="35.90" routeLength="400.93" waitingTime="0.00" waitingCount="0" stopTime="0.00" timeLoss="-2.21" rerouteNo="1" devices="tripinfo_RX_11" vType="car8@RX_11" speedFactor="1.83" vaporized=""/>
    <tripinfo id="SX_1" depart="0.00" departLane="001_001_2_1" departPos="9.10" departSpeed="11.18" departDelay="0.00" arrival="37.40" arrivalLane="001_000_2_2" arrivalPos="200.00" arrivalSpeed="11.18" duration="37.40" routeLength="418.10" waitingTime="0.00" waitingCount="0" stopTime="0.00" timeLoss="0.00" rerouteNo="1" devices="tripinfo_SX_1" vType="car9@SX_1" speedFactor="1.60" vaporized=""/>
    <tripinfo id="SX_2" depart="0.00" departLane="001_001_4_1" departPos="7.10" departSpeed="11.18" departDelay="0.00" arrival="37.60" arrivalLane="001_002_4_2" arrivalPos="200.00" arrivalSpeed="11.18" duration="37.60" routeLength="420.10" waitingTime="0.00" waitingCount="0" stopTime="0.00" timeLoss="0.00" rerouteNo="1" devices="tripinfo_SX_2" vType="car7@SX_2" speedFactor="1.10" vaporized=""/>
    <tripinfo id="LX_4" depart="0.00" departLane="002_001_3_2" departPos="8.10" departSpeed="11.18" departDelay="0.00" arrival="37.80" arrivalLane="002_000_2_2" arrivalPos="200.00" arrivalSpeed="11.18" duration="37.80" routeLength="415.12" waitingTime="0.00" waitingCount="0" stopTime="0.00" timeLoss="-2.39" rerouteNo="1" devices="tripinfo_LX_4" vType="car8@LX_4" speedFactor="1.30" vaporized=""/>
    <tripinfo id="RX_16" depart="2.00" departLane="002_001_3_0" departPos="9.10" departSpeed="11.18" departDelay="0.00" arrival="37.80" arrivalLane="002_002_4_0" arrivalPos="200.00" arrivalSpeed="11.18" duration="35.80" routeLength="399.93" waitingTime="0.00" waitingCount="0" stopTime="0.00" timeLoss="-2.74" rerouteNo="1" devices="tripinfo_RX_16" vType="car9@RX_16" speedFactor="1.00" vaporized=""/>
    <tripinfo id="RX_13" depart="2.00" departLane="001_001_2_0" departPos="8.10" departSpeed="11.18" departDelay="0.00" arrival="37.90" arrivalLane="000_001_3_0" arrivalPos="200.00" arrivalSpeed="11.18" duration="35.90" routeLength="400.93" waitingTime="0.00" waitingCount="0" stopTime="0.00" timeLoss="-2.25" rerouteNo="1" devices="tripinfo_RX_13" vType="car8@RX_13" speedFactor="1.46" vaporized=""/>
    <tripinfo id="LX_3" depart="0.00" departLane="002_001_2_2" departPos="5.10" departSpeed="11.18" departDelay="0.00" arrival="38.30" arrivalLane="003_001_1_2" arrivalPos="200.00" arrivalSpeed="11.18" duration="38.30" routeLength="418.11" waitingTime="0.00" waitingCount="0" stopTime="0.00" timeLoss="-2.37" rerouteNo="1" devices="tripinfo_LX_3" vType="car5@LX_3" speedFactor="1.83" vaporized=""/>
    <tripinfo id="LX_0" depart="0.00" departLane="001_001_1_2" departPos="6.10" departSpeed="11.18" departDelay="0.00" arrival="38.70" arrivalLane="001_002_4_2" arrivalPos="200.00" arrivalSpeed="11.18" duration="38.70" routeLength="417.12" waitingTime="0.00" waitingCount="0" stopTime="0.00" timeLoss="-2.47" rerouteNo="1" devices="tripinfo_LX_0" vType="car6@LX_0" speedFactor="1.60" vaporized=""/>
    <tripinfo id="RX_17" depart="2.50" departLane="002_001_4_0" departPos="9.10" departSpeed="11.18" departDelay="0.50" arrival="39.20" arrivalLane="003_001_1_0" arrivalPos="200.00" arrivalSpeed="11.18" duration="36.70" routeLength="399.93" waitingTime="0.00" waitingCount="0" stopTime="0.00" timeLoss="-2.24" rerouteNo="1" devices="tripinfo_RX_17" vType="car9@RX_17" speedFactor="1.91" vaporized=""/>
    <tripinfo id="LX_6" depart="1.30" departLane="001_001_1_2" departPos="7.10" departSpeed="11.18" departDelay="0.30" arrival="39.60" arrivalLane="001_002_4_2" arrivalPos="200.00" arrivalSpeed="11.18" duration="38.30" routeLength="416.12" waitingTime="0.00" waitingCount="0" stopTime="0.00" timeLoss="-1.42" rerouteNo="1" devices="tripinfo_LX_6" vType="car7@LX_6" speedFactor="1.00" vaporized=""/>
    <tripinfo id="SX_14" depart="2.00" departLane="001_001_4_1" departPos="5.10" departSpeed="11.18" departDelay="0.00" arrival="39.80" arrivalLane="001_002_4_1" arrivalPos="200.00" arrivalSpeed="11.18" duration="37.80" routeLength="422.10" waitingTime="0.00" waitingCount="0" stopTime="0.00" timeLoss="0.00" rerouteNo="1" devices="tripinfo_SX_14" vType="car5@SX_14" speedFactor="1.18" vaporized=""/>
    <tripinfo id="RX_19" depart="3.30" departLane="001_001_2_0" departPos="7.10" departSpeed="11.18" departDelay="0.30" arrival="40.00" arrivalLane="000_001_3_0" arrivalPos="200.00" arrivalSpeed="11.18" duration="36.70" routeLength="401.93" waitingTime="0.00" waitingCount="0" stopTime="0.00" timeLoss="-2.63" rerouteNo="1" devices="tripinfo_RX_19" vType="car7@RX_19" speedFactor="1.05" vaporized=""/>
    <tripinfo id="LX_8" depart="1.10" departLane="001_001_4_2" departPos="5.10" departSpeed="11.18" departDelay="0.10" arrival="40.10" arrivalLane="000_001_3_2" arrivalPos="200.00" arrivalSpeed="11.18" duration="39.00" routeLength="418.11" waitingTime="0.00" waitingCount="0" stopTime="0.00" timeLoss="-2.40" rerouteNo="1" devices="tripinfo_LX_8" vType="car5@LX_8" speedFactor="1.26" vaporized=""/>
    <tripinfo id="RX_23" depart="4.00" departLane="001_001_1_0" departPos="6.10" departSpeed="11.18" departDelay="0.00" arrival="40.10" arrivalLane="001_000_2_0" arrivalPos="200.00" arrivalSpeed="11.18" duration="36.10" routeLength="402.93" waitingTime="0.00" waitingCount="0" stopTime="0.00" timeLoss="-2.36" rerouteNo="1" devices="tripinfo_RX_23" vType="car6@RX_23" speedFactor="1.30" vaporized=""/>
    <tripinfo id="RX_27" depart="4.00" departLane="002_001_4_0" departPos="6.10" departSpeed="11.18" departDelay="0.00" arrival="40.40" arrivalLane="003_001_1_0" arrivalPos="200.00" arrivalSpeed="11.18" duration="36.40" routeLength="402.93" waitingTime="0.00" waitingCount="0" stopTime="0.00" timeLoss="-2.40" rerouteNo="1" devices="tripinfo_RX_27" vType="car6@RX_27" speedFactor="1.43" vaporized=""/>
    <tripinfo id="LX_10" depart="1.40" departLane="002_001_3_2" departPos="8.10" departSpeed="11.18" departDelay="0.40" arrival="40.80" arrivalLane="002_000_2_2" arrivalPos="200.00" arrivalSpeed="11.18" duration="39.40" routeLength="415.12" waitingTime="0.00" waitingCount="0" stopTime="0.00" timeLoss="-2.46" rerouteNo="1" devices="tripinfo_LX_10" vType="car8@LX_10" speedFactor="1.10" vaporized=""/>
    <tripinfo id="RX_24" depart="4.40" departLane="001_001_2_0" departPos="5.10" departSpeed="11.18" departDelay="0.40" arrival="40.90" arrivalLane="000_001_3_0" arrivalPos="200.00" arrivalSpeed="11.18" duration="36.50" routeLength="403.93" waitingTime="0.00" waitingCount="0" stopTime="0.00" timeLoss="-2.79" rerouteNo="1" devices="tripinfo_RX_24" vType="car5@RX_24" speedFactor="1.00" vaporized=""/>
    <tripinfo id="RX_28" depart="5.10" departLane="001_001_1_0" departPos="5.10" departSpeed="11.18" departDelay="0.10" arrival="41.30" arrivalLane="001_000_2_0" arrivalPos="200.00" arrivalSpeed="11.18" duration="36.20" routeLength="403.93" waitingTime="0.00" waitingCount="0" stopTime="0.00" timeLoss="-2.20" rerouteNo="1" devices="tripinfo_RX_28" vType="car5@RX_28" speedFactor="1.88" vaporized=""/>
    <tripinfo id="RX_29" depart="5.50" departLane="001_001_2_0" departPos="5.10" departSpeed="11.18" departDelay="0.50" arrival="41.70" arrivalLane="000_001_3_0" arrivalPos="200.00" arrivalSpeed="11.18" duration="36.20" routeLength="403.93" waitingTime="0.00" waitingCount="0" stopTime="0.00" timeLoss="-2.77" rerouteNo="1" devices="tripinfo_RX_29" vType="car5@RX_29" speedFactor="1.00" vaporized=""/>
    <tripinfo id="RX_37" depart="6.00" departLane="002_001_4_0" departPos="7.10" departSpeed="11.18" departDelay="0.00" arrival="42.00" arrivalLane="003_001_1_0" arrivalPos="200.00" arrivalSpeed="11.18" duration="36.00" routeLength="401.93" waitingTime="0.00" waitingCount="0" stopTime="0.00" timeLoss="-2.49" rerouteNo="1" devices="tripinfo_RX_37" vType="car7@RX_37" speedFactor="1.16" vaporized=""/>
    <tripinfo id="SX_22" depart="3.00" departLane="002_001_4_1" departPos="7.10" departSpeed="11.18" departDelay="0.00" arrival="42.50" arrivalLane="002_002_4_1" arrivalPos="200.00" arrivalSpeed="11.18" duration="39.50" routeLength="420.10" waitingTime="0.00" waitingCount="0" stopTime="0.00" timeLoss="-0.29" rerouteNo="1" devices="tripinfo_SX_22" vType="car7@SX_22" speedFactor="1.00" vaporized=""/>
    <tripinfo id="RX_38" depart="7.00" departLane="001_001_1_0" departPos="5.10" departSpeed="11.18" departDelay="0.00" arrival="43.20" arrivalLane="001_000_2_0" arrivalPos="200.00" arrivalSpeed="11.18" duration="36.20" routeLength="403.93" waitingTime="0.00" waitingCount="0" stopTime="0.00" timeLoss="-2.55" rerouteNo="1" devices="tripinfo_RX_38" vType="car5@RX_38" speedFactor="1.10" vaporized=""/>
    <tripinfo id="LX_26" depart="4.00" departLane="002_001_2_2" departPos="7.10" departSpeed="11.18" departDelay="0.00" arrival="43.30" arrivalLane="003_001_1_2" arrivalPos="200.00" arrivalSpeed="11.18" duration="39.30" routeLength="416.11" waitingTime="0.00" waitingCount="0" stopTime="0.00" timeLoss="-2.52" rerouteNo="1" devices="tripinfo_LX_26" vType="car7@LX_26" speedFactor="1.38" vaporized=""/>
    <tripinfo id="SX_31" depart="5.00" departLane="002_001_2_1" departPos="7.10" departSpeed="11.18" departDelay="0.00" arrival="43.30" arrivalLane="002_000_2_1" arrivalPos="200.00" arrivalSpeed="11.18" duration="38.30" routeLength="420.10" waitingTime="0.00" waitingCount="0" stopTime="0.00" timeLoss="-0.02" rerouteNo="1" devices="tripinfo_SX_31" vType="car7@SX_31" speedFactor="1.96" vaporized=""/>
    <tripinfo id="LX_25" depart="4.00" departLane="001_001_4_2" departPos="5.10" departSpeed="11.18" departDelay="0.00" arrival="43.90" arrivalLane="000_001_3_2" arrivalPos="200.00" arrivalSpeed="11.18" duration="39.90" routeLength="418.11" waitingTime="0.00" waitingCount="0" stopTime="0.00" timeLoss="-2.47" rerouteNo="1" devices="tripinfo_LX_25" vType="car5@LX_25" speedFactor="1.92" vaporized=""/>
    <tripinfo id="RX_49" depart="8.00" departLane="002_001_4_0" departPos="7.10" departSpeed="11.18" departDelay="0.00" arrival="44.00" arrivalLane="003_001_1_0" arrivalPos="200.00" arrivalSpeed="11.18" duration="36.00" routeLength="401.93" waitingTime="0.00" waitingCount="0" stopTime="0.00" timeLoss="-2.45" rerouteNo="1" devices="tripinfo_RX_49" vType="car7@RX_49" speedFactor="1.20" vaporized=""/>
    <tripinfo id="RX_36" depart="6.20" departLane="002_001_3_0" departPos="6.10" departSpeed="11.18" departDelay="0.20" arrival="44.10" arrivalLane="002_002_4_0" arrivalPos="200.00" arrivalSpeed="11.18" duration="37.90" routeLength="402.93" waitingTime="0.00" waitingCount="0" stopTime="0.00" timeLoss="-0.40" rerouteNo="1" devices="tripinfo_RX_36" vType="car6@RX_36" speedFactor="1.82" vaporized=""/>
    <tripinfo id="RX_44" depart="8.20" departLane="001_001_1_0" departPos="6.10" departSpeed="11.18" departDelay="0.20" arrival="44.30" arrivalLane="001_000_2_0" arrivalPos="200.00" arrivalSpeed="11.18" duration="36.10" routeLength="402.93" waitingTime="0.00" waitingCount="0" stopTime="0.00" timeLoss="-2.67" rerouteNo="1" devices="tripinfo_RX_44" vType="car6@RX_44" speedFactor="1.00" vaporized=""/>
    <tripinfo id="SX_34" depart="6.00" departLane="001_001_2_1" departPos="8.10" departSpeed="11.18" departDelay="0.00" arrival="44.90" arrivalLane="001_000_2_2" arrivalPos="200.00" arrivalSpeed="11.18" duration="38.90" routeLength="419.10" waitingTime="0.50" waitingCount="1" stopTime="0.00" timeLoss="-4405.61" rerouteNo="1" devices="tripinfo_SX_34" vType="car8@SX_34" speedFactor="1.24" vaporized=""/>
    <tripinfo id="RX_48" depart="8.00" departLane="002_001_3_0" departPos="8.10" departSpeed="11.18" departDelay="0.00" arrival="44.90" arrivalLane="002_002_4_0" arrivalPos="200.00" arrivalSpeed="11.18" duration="36.90" routeLength="400.93" waitingTime="0.00" waitingCount="0" stopTime="0.00" timeLoss="-1.39" rerouteNo="1" devices="tripinfo_RX_48" vType="car8@RX_48" speedFactor="1.32" vaporized=""/>
    <tripinfo id="RX_51" depart="9.00" departLane="001_001_2_0" departPos="7.10" departSpeed="11.18" departDelay="0.00" arrival="45.00" arrivalLane="000_001_3_0" arrivalPos="200.00" arrivalSpeed="11.18" duration="36.00" routeLength="401.93" waitingTime="0.00" waitingCount="0" stopTime="0.00" timeLoss="-2.21" rerouteNo="1" devices="tripinfo_RX_51" vType="car7@RX_51" speedFactor="1.87" vaporized=""/>
    <tripinfo id="SX_33" depart="5.00" departLane="002_001_4_1" departPos="9.10" departSpeed="11.18" departDelay="0.00" arrival="45.40" arrivalLane="002_002_4_1" arrivalPos="200.00" arrivalSpeed="11.18" duration="40.40" routeLength="418.10" waitingTime="0.00" waitingCount="0" stopTime="0.00" timeLoss="-0.18" rerouteNo="1" devices="tripinfo_SX_33" vType="car9@SX_33" speedFactor="1.00" vaporized=""/>
    <tripinfo id="SX_30" depart="5.00" departLane="001_001_4_1" departPos="9.10" departSpeed="11.18" departDelay="0.00" arrival="45.50" arrivalLane="001_002_4_1" arrivalPos="200.00" arrivalSpeed="11.18" duration="40.50" routeLength="418.10" waitingTime="0.00" waitingCount="0" stopTime="0.00" timeLoss="-0.19" rerouteNo="1" devices="tripinfo_SX_30" vType="car9@SX_30" speedFactor="1.17" vaporized=""/>
    <tripinfo id="SX_46" depart="8.00" departLane="001_001_4_1" departPos="8.10" departSpeed="11.18" departDelay="0.00" arrival="45.50" arrivalLane="001_002_4_2" arrivalPos="200.00" arrivalSpeed="11.18" duration="37.50" routeLength="419.10" waitingTime="0.00" waitingCount="0" stopTime="0.00" timeLoss="0.00" rerouteNo="1" devices="tripinfo_SX_46" vType="car8@SX_46" speedFactor="1.05" vaporized=""/>
    <tripinfo id="SX_40" depart="7.00" departLane="001_001_4_1" departPos="7.10" departSpeed="11.18" departDelay="0.00" arrival="45.70" arrivalLane="001_002_4_0" arrivalPos="200.00" arrivalSpeed="11.18" duration="38.70" routeLength="420.10" waitingTime="0.00" waitingCount="0" stopTime="0.00" timeLoss="-0.02" rerouteNo="1" devices="tripinfo_SX_40" vType="car7@SX_40" speedFactor="1.40" vaporized=""/>
    <tripinfo id="LX_52" depart="9.50" departLane="001_001_4_2" departPos="9.10" departSpeed="11.18" departDelay="0.50" arrival="46.70" arrivalLane="000_001_3_2" arrivalPos="200.00" arrivalSpeed="11.18" duration="37.20" routeLength="414.11" waitingTime="0.00" waitingCount="0" stopTime="0.00" timeLoss="-2.35" rerouteNo="1" devices="tripinfo_LX_52" vType="car9@LX_52" speedFactor="1.34" vaporized=""/>
    <tripinfo id="SX_41" depart="7.00" departLane="002_001_2_1" departPos="9.10" departSpeed="11.18" departDelay="0.00" arrival="47.00" arrivalLane="002_000_2_2" arrivalPos="200.00" arrivalSpeed="11.18" duration="40.00" routeLength="418.10" waitingTime="0.00" waitingCount="0" stopTime="0.00" timeLoss="-0.13" rerouteNo="1" devices="tripinfo_SX_41" vType="car9@SX_41" speedFactor="1.22" vaporized=""/>
    <tripinfo id="RX_64" depart="11.00" departLane="002_001_3_0" departPos="7.10" departSpeed="11.18" departDelay="0.00" arrival="47.00" arrivalLane="002_002_4_0" arrivalPos="200.00" arrivalSpeed="11.18" duration="36.00" routeLength="401.93" waitingTime="0.00" waitingCount="0" stopTime="0.00" timeLoss="-2.21" rerouteNo="1" devices="tripinfo_RX_64" vType="car7@RX_64" speedFactor="1.57" vaporized=""/>
    <tripinfo id="SX_47" depart="8.00" departLane="002_001_2_1" departPos="8.10" departSpeed="11.18" departDelay="0.00" arrival="47.30" arrivalLane="002_000_2_1" arrivalPos="200.00" arrivalSpeed="11.18" duration="39.30" routeLength="419.10" waitingTime="0.00" waitingCount="0" stopTime="0.00" timeLoss="-0.32" rerouteNo="1" devices="tripinfo_SX_47" vType="car8@SX_47" speedFactor="1.00" vaporized=""/>
    <tripinfo id="LX_42" depart="7.00" departLane="002_001_3_2" departPos="5.10" departSpeed="11.18" departDelay="0.00" arrival="48.30" arrivalLane="002_000_2_2" arrivalPos="200.00" arrivalSpeed="11.18" duration="41.30" routeLength="418.12" waitingTime="2.90" waitingCount="1" stopTime="0.00" timeLoss="-4061.07" rerouteNo="1" devices="tripinfo_LX_42" vType="car5@LX_42" speedFactor="1.23" vaporized=""/>
    <tripinfo id="SX_53" depart="9.20" departLane="002_001_2_1" departPos="6.10" departSpeed="11.18" departDelay="0.20" arrival="48.30" arrivalLane="002_000_2_1" arrivalPos="200.00" arrivalSpeed="11.18" duration="39.10" routeLength="421.10" waitingTime="0.00" waitingCount="0" stopTime="0.00" timeLoss="1.35" rerouteNo="1" devices="tripinfo_SX_53" vType="car6@SX_53" speedFactor="1.00" vaporized=""/>
    <tripinfo id="RX_67" depart="12.00" departLane="001_001_2_0" departPos="6.10" departSpeed="11.18" departDelay="0.00" arrival="48.30" arrivalLane="000_001_3_0" arrivalPos="200.00" arrivalSpeed="11.18" duration="36.30" routeLength="402.93" waitingTime="0.00" waitingCount="0" stopTime="0.00" timeLoss="-2.21" rerouteNo="1" devices="tripinfo_RX_67" vType="car6@RX_67" speedFactor="1.65" vaporized=""/>
    <tripinfo id="LX_54" depart="9.00" departLane="002_001_3_2" departPos="6.10" departSpeed="11.18" departDelay="0.00" arrival="49.00" arrivalLane="002_000_2_2" arrivalPos="200.00" arrivalSpeed="11.18" duration="40.00" routeLength="417.12" waitingTime="1.60" waitingCount="1" stopTime="0.00" timeLoss="0.28" rerouteNo="1" devices="tripinfo_LX_54" vType="car6@LX_54" speedFactor="1.17" vaporized=""/>
    <tripinfo id="SX_63" depart="11.00" departLane="002_001_2_1" departPos="5.10" departSpeed="11.18" departDelay="0.00" arrival="49.10" arrivalLane="002_000_2_1" arrivalPos="200.00" arrivalSpeed="11.18" duration="38.10" routeLength="422.10" waitingTime="0.00" waitingCount="0" stopTime="0.00" timeLoss="0.05" rerouteNo="1" devices="tripinfo_SX_63" vType="car5@SX_63" speedFactor="1.91" vaporized=""/>
    <tripinfo id="RX_77" depart="13.00" departLane="002_001_4_0" departPos="5.10" departSpeed="11.18" departDelay="0.00" arrival="49.20" arrivalLane="003_001_1_0" arrivalPos="200.00" arrivalSpeed="11.18" duration="36.20" routeLength="403.93" waitingTime="0.00" waitingCount="0" stopTime="0.00" timeLoss="-2.19" rerouteNo="1" devices="tripinfo_RX_77" vType="car5@RX_77" speedFactor="1.99" vaporized=""/>
    <tripinfo id="RX_78" depart="14.00" departLane="001_001_1_0" departPos="9.10" departSpeed="11.18" departDelay="0.00" arrival="49.80" arrivalLane="001_000_2_0" arrivalPos="200.00" arrivalSpeed="11.18" duration="35.80" routeLength="399.93" waitingTime="0.00" waitingCount="0" stopTime="0.00" timeLoss="-2.61" rerouteNo="1" devices="tripinfo_RX_78" vType="car9@RX_78" speedFactor="1.09" vaporized=""/>
    <tripinfo id="LX_50" depart="9.00" departLane="001_001_1_2" departPos="6.10" departSpeed="11.18" departDelay="0.00" arrival="49.90" arrivalLane="001_002_4_1" arrivalPos="200.00" arrivalSpeed="11.18" duration="40.90" routeLength="422.00" waitingTime="0.00" waitingCount="0" stopTime="0.00" timeLoss="-3.03" rerouteNo="1" devices="tripinfo_LX_50" vType="car6@LX_50" speedFactor="1.07" vaporized=""/>
    <tripinfo id="SX_55" depart="9.00" departLane="002_001_4_1" departPos="5.10" departSpeed="11.18" departDelay="0.00" arrival="50.00" arrivalLane="002_002_4_0" arrivalPos="200.00" arrivalSpeed="11.18" duration="41.00" routeLength="422.10" waitingTime="0.00" waitingCount="0" stopTime="0.00" timeLoss="0.13" rerouteNo="1" devices="tripinfo_SX_55" vType="car5@SX_55" speedFactor="1.30" vaporized=""/>
    <tripinfo id="RX_88" depart="15.00" departLane="002_001_4_0" departPos="5.10" departSpeed="11.18" departDelay="0.00" arrival="51.20" arrivalLane="003_001_1_0" arrivalPos="200.00" arrivalSpeed="11.18" duration="36.20" routeLength="403.93" waitingTime="0.00" waitingCount="0" stopTime="0.00" timeLoss="-2.35" rerouteNo="1" devices="tripinfo_RX_88" vType="car5@RX_88" speedFactor="1.32" vaporized=""/>
    <tripinfo id="RX_83" depart="15.40" departLane="001_001_1_0" departPos="8.10" departSpeed="11.18" departDelay="0.40" arrival="51.30" arrivalLane="001_000_2_0" arrivalPos="200.00" arrivalSpeed="11.18" duration="35.90" routeLength="400.93" waitingTime="0.00" waitingCount="0" stopTime="0.00" timeLoss="-2.21" rerouteNo="1" devices="tripinfo_RX_83" vType="car8@RX_83" speedFactor="1.71" vaporized=""/>
    <tripinfo id="SX_57" depart="10.00" departLane="001_001_2_1" departPos="9.10" departSpeed="11.18" departDelay="0.00" arrival="51.60" arrivalLane="001_000_2_2" arrivalPos="200.00" arrivalSpeed="11.18" duration="41.60" routeLength="418.10" waitingTime="1.80" waitingCount="2" stopTime="0.00" timeLoss="-4045.34" rerouteNo="1" devices="tripinfo_SX_57" vType="car9@SX_57" speedFactor="1.02" vaporized=""/>
    <tripinfo id="LX_59" depart="10.10" departLane="002_001_3_2" departPos="5.10" departSpeed="11.18" departDelay="0.10" arrival="51.90" arrivalLane="002_000_2_2" arrivalPos="200.00" arrivalSpeed="11.18" duration="41.80" routeLength="418.12" waitingTime="2.00" waitingCount="2" stopTime="0.00" timeLoss="-4558.93" rerouteNo="1" devices="tripinfo_LX_59" vType="car5@LX_59" speedFactor="1.07" vaporized=""/>
    <tripinfo id="LX_66" depart="12.00" departLane="001_001_1_2" departPos="8.10" departSpeed="11.18" departDelay="0.00" arrival="52.10" arrivalLane="001_002_4_2" arrivalPos="200.00" arrivalSpeed="11.18" duration="40.10" routeLength="415.12" waitingTime="2.00" waitingCount="1" stopTime="0.00" timeLoss="-4407.97" rerouteNo="1" devices="tripinfo_LX_66" vType="car8@LX_66" speedFactor="1.97" vaporized=""/>
    <tripinfo id="SX_62" depart="11.00" departLane="001_001_4_1" departPos="5.10" departSpeed="11.18" departDelay="0.00" arrival="53.00" arrivalLane="001_002_4_1" arrivalPos="200.00" arrivalSpeed="11.18" duration="42.00" routeLength="422.10" waitingTime="0.00" waitingCount="0" stopTime="0.00" timeLoss="-0.45" rerouteNo="1" devices="tripinfo_SX_62" vType="car5@SX_62" speedFactor="1.92" vaporized=""/>
    <tripinfo id="RX_95" depart="17.00" departLane="001_001_1_0" departPos="5.10" departSpeed="11.18" departDelay="0.00" arrival="53.20" arrivalLane="001_000_2_0" arrivalPos="200.00" arrivalSpeed="11.18" duration="36.20" routeLength="403.93" waitingTime="0.00" waitingCount="0" stopTime="0.00" timeLoss="-2.50" rerouteNo="1" devices="tripinfo_RX_95" vType="car5@RX_95" speedFactor="1.15" vaporized=""/>
    <tripinfo id="RX_99" depart="17.00" departLane="002_001_3_0" departPos="5.10" departSpeed="11.18" departDelay="0.00" arrival="53.20" arrivalLane="002_002_4_0" arrivalPos="200.00" arrivalSpeed="11.18" duration="36.20" routeLength="403.93" waitingTime="0.00" waitingCount="0" stopTime="0.00" timeLoss="-2.64" rerouteNo="1" devices="tripinfo_RX_99" vType="car5@RX_99" speedFactor="1.02" vaporized=""/>
    <tripinfo id="LX_69" depart="12.00" departLane="002_001_2_2" departPos="8.10" departSpeed="11.18" departDelay="0.00" arrival="53.50" arrivalLane="003_001_1_2" arrivalPos="200.00" arrivalSpeed="11.18" duration="41.50" routeLength="415.11" waitingTime="0.00" waitingCount="0" stopTime="0.00" timeLoss="-3.83" rerouteNo="1" devices="tripinfo_LX_69" vType="car8@LX_69" speedFactor="1.43" vaporized=""/>
    <tripinfo id="LX_58" depart="11.00" departLane="001_001_4_2" departPos="9.10" departSpeed="11.18" departDelay="1.00" arrival="53.70" arrivalLane="000_001_3_2" arrivalPos="200.00" arrivalSpeed="11.18" duration="42.70" routeLength="414.11" waitingTime="4.60" waitingCount="1" stopTime="0.00" timeLoss="-4528.85" rerouteNo="1" devices="tripinfo_LX_58" vType="car9@LX_58" speedFactor="1.43" vaporized=""/>
    <tripinfo id="SX_74" depart="13.00" departLane="001_001_4_1" departPos="6.10" departSpeed="11.18" departDelay="0.00" arrival="53.80" arrivalLane="001_002_4_1" arrivalPos="200.00" arrivalSpeed="11.18" duration="40.80" routeLength="421.10" waitingTime="0.00" waitingCount="0" stopTime="0.00" timeLoss="3.07" rerouteNo="1" devices="tripinfo_SX_74" vType="car6@SX_74" speedFactor="1.65" vaporized=""/>
    <tripinfo id="RX_101" depart="18.10" departLane="001_001_1_0" departPos="5.10" departSpeed="11.18" departDelay="0.10" arrival="54.30" arrivalLane="001_000_2_0" arrivalPos="200.00" arrivalSpeed="11.18" duration="36.20" routeLength="403.93" waitingTime="0.00" waitingCount="0" stopTime="0.00" timeLoss="-2.29" rerouteNo="1" devices="tripinfo_RX_101" vType="car5@RX_101" speedFactor="1.40" vaporized=""/>
    <tripinfo id="RX_104" depart="18.00" departLane="002_001_4_0" departPos="6.10" departSpeed="11.18" departDelay="0.00" arrival="54.60" arrivalLane="003_001_1_1" arrivalPos="200.00" arrivalSpeed="11.18" duration="36.60" routeLength="408.09" waitingTime="0.00" waitingCount="0" stopTime="0.00" timeLoss="-2.26" rerouteNo="1" devices="tripinfo_RX_104" vType="car6@RX_104" speedFactor="1.71" vaporized=""/>
    <tripinfo id="LX_68" depart="12.10" departLane="001_001_4_2" departPos="5.10" departSpeed="11.18" departDelay="0.10" arrival="54.70" arrivalLane="000_001_3_2" arrivalPos="200.00" arrivalSpeed="11.18" duration="42.60" routeLength="418.11" waitingTime="4.30" waitingCount="1" stopTime="0.00" timeLoss="2.68" rerouteNo="1" devices="tripinfo_LX_68" vType="car5@LX_68" speedFactor="1.38" vaporized=""/>
    <tripinfo id="SX_65" depart="11.00" departLane="002_001_4_1" departPos="5.10" departSpeed="11.18" departDelay="0.00" arrival="54.80" arrivalLane="002_002_4_2" arrivalPos="200.00" arrivalSpeed="11.18" duration="43.80" routeLength="422.10" waitingTime="3.70" waitingCount="2" stopTime="0.00" timeLoss="-4959.19" rerouteNo="1" devices="tripinfo_SX_65" vType="car5@SX_65" speedFactor="1.10" vaporized=""/>
    <tripinfo id="RX_108" depart="19.00" departLane="002_001_3_0" departPos="8.10" departSpeed="11.18" departDelay="0.00" arrival="54.90" arrivalLane="002_002_4_0" arrivalPos="200.00" arrivalSpeed="11.18" duration="35.90" routeLength="400.93" waitingTime="0.00" waitingCount="0" stopTime="0.00" timeLoss="-2.21" rerouteNo="1" devices="tripinfo_RX_108" vType="car8@RX_108" speedFactor="1.78" vaporized=""/>
    <tripinfo id="RX_106" depart="19.00" departLane="001_001_2_0" departPos="5.10" departSpeed="11.18" departDelay="0.00" arrival="55.20" arrivalLane="000_001_3_0" arrivalPos="200.00" arrivalSpeed="11.18" duration="36.20" routeLength="403.93" waitingTime="0.00" waitingCount="0" stopTime="0.00" timeLoss="-2.20" rerouteNo="1" devices="tripinfo_RX_106" vType="car5@RX_106" speedFactor="1.65" vaporized=""/>
    <tripinfo id="RX_105" depart="19.20" departLane="001_001_1_0" departPos="5.10" departSpeed="11.18" departDelay="0.20" arrival="55.40" arrivalLane="001_000_2_0" arrivalPos="200.00" arrivalSpeed="11.18" duration="36.20" routeLength="403.93" waitingTime="0.00" waitingCount="0" stopTime="0.00" timeLoss="-2.67" rerouteNo="1" devices="tripinfo_RX_105" vType="car5@RX_105" speedFactor="1.00" vaporized=""/>
    <tripinfo id="RX_115" depart="20.00" departLane="002_001_4_0" departPos="5.10" departSpeed="11.18" departDelay="0.00" arrival="56.20" arrivalLane="003_001_1_0" arrivalPos="200.00" arrivalSpeed="11.18" duration="36.20" routeLength="403.93" waitingTime="0.00" waitingCount="0" stopTime="0.00" timeLoss="-2.20" rerouteNo="1" devices="tripinfo_RX_115" vType="car5@RX_115" speedFactor="1.87" vaporized=""/>
    <tripinfo id="RX_111" depart="20.20" departLane="001_001_2_0" departPos="6.10" departSpeed="11.18" departDelay="0.20" arrival="56.30" arrivalLane="000_001_3_0" arrivalPos="200.00" arrivalSpeed="11.18" duration="36.10" routeLength="402.93" waitingTime="0.00" waitingCount="0" stopTime="0.00" timeLoss="-2.62" rerouteNo="1" devices="tripinfo_RX_111" vType="car6@RX_111" speedFactor="1.04" vaporized=""/>
    <tripinfo id="LX_75" depart="13.10" departLane="002_001_2_2" departPos="5.10" departSpeed="11.18" departDelay="0.10" arrival="56.50" arrivalLane="003_001_1_2" arrivalPos="200.00" arrivalSpeed="11.18" duration="43.40" routeLength="418.11" waitingTime="1.10" waitingCount="1" stopTime="0.00" timeLoss="-4212.55" rerouteNo="1" devices="tripinfo_LX_75" vType="car5@LX_75" speedFactor="1.00" vaporized=""/>
    <tripinfo id="RR_9" depart="1.00" departLane="002_001_2_0" departPos="9.10" departSpeed="11.18" departDelay="0.00" arrival="56.90" arrivalLane="001_002_4_0" arrivalPos="200.00" arrivalSpeed="11.18" duration="55.90" routeLength="608.96" waitingTime="0.00" waitingCount="0" stopTime="0.00" timeLoss="-2.51" rerouteNo="2" devices="tripinfo_RR_9" vType="car9@RR_9" speedFactor="1.47" vaporized=""/>
    <tripinfo id="SX_86" depart="15.00" departLane="002_001_2_1" departPos="8.10" departSpeed="11.18" departDelay="0.00" arrival="57.10" arrivalLane="002_000_2_1" arrivalPos="200.00" arrivalSpeed="11.18" duration="42.10" routeLength="419.10" waitingTime="3.70" waitingCount="1" stopTime="0.00" timeLoss="-4405.61" rerouteNo="1" devices="tripinfo_SX_86" vType="car8@SX_86" speedFactor="1.23" vaporized=""/>