<?xml version="1.0" encoding="UTF-8"?>

<!-- generated on 03/31/20 15:32:44 by Eclipse SUMO GUI Version 1.3.1
<configuration xmlns:xsi="http://www.w3.org/2001/XMLSchema-instance" xsi:noNamespaceSchemaLocation="http://sumo.dlr.de/xsd/sumoConfiguration.xsd">

    <input>
        <net-file value="data/NoGreenWaveLightlane2by2.net.xml"/>
        <route-files value="data/icacc+.rou.xml"/>
    </input>

    <output>
        <tripinfo-output value="tripinfo.xml"/>
    </output>

    <time>
        <begin value="0"/>
        <step-length value="0.1"/>
    </time>

    <processing>
        <collision.mingap-factor value="0"/>
    </processing>

    <report>
        <verbose value="true"/>
        <no-step-log value="true"/>
    </report>

    <traci_server>
        <remote-port value="9424"/>
    </traci_server>

    <gui_only>
        <start value="true"/>
        <tracker-interval value="0.1"/>
    </gui_only>

</configuration>
-->

<tripinfos xmlns:xsi="http://www.w3.org/2001/XMLSchema-instance" xsi:noNamespaceSchemaLocation="http://sumo.dlr.de/xsd/tripinfo_file.xsd">
    <tripinfo id="car_6" depart="1.00" departLane="002_001_3_1" departPos="6.10" departSpeed="11.18" departDelay="0.00" arrival="36.10" arrivalLane="002_000_2_2" arrivalPos="186.40" arrivalSpeed="11.18" duration="35.10" routeLength="391.21" waitingTime="0.00" waitingCount="0" stopTime="0.00" timeLoss="0.00" rerouteNo="1" devices="tripinfo_car_6" vType="car6" speedFactor="1.05" vaporized=""/>
    <tripinfo id="car_9" depart="1.70" departLane="002_002_2_0" departPos="7.10" departSpeed="11.18" departDelay="0.70" arrival="37.20" arrivalLane="003_002_1_2" arrivalPos="186.40" arrivalSpeed="11.18" duration="35.50" routeLength="390.21" waitingTime="0.00" waitingCount="0" stopTime="0.00" timeLoss="0.02" rerouteNo="1" devices="tripinfo_car_9" vType="car7" speedFactor="0.86" vaporized=""/>
    <tripinfo id="car_16" depart="3.00" departLane="002_001_3_1" departPos="5.10" departSpeed="11.18" departDelay="0.00" arrival="38.80" arrivalLane="002_000_2_2" arrivalPos="186.40" arrivalSpeed="11.18" duration="35.80" routeLength="392.21" waitingTime="0.00" waitingCount="0" stopTime="0.00" timeLoss="0.15" rerouteNo="1" devices="tripinfo_car_16" vType="car5" speedFactor="0.88" vaporized=""/>
    <tripinfo id="car_23" depart="5.00" departLane="001_002_1_2" departPos="8.10" departSpeed="11.18" departDelay="0.00" arrival="40.30" arrivalLane="001_003_4_2" arrivalPos="186.40" arrivalSpeed="11.18" duration="35.30" routeLength="389.21" waitingTime="0.00" waitingCount="0" stopTime="0.00" timeLoss="0.02" rerouteNo="1" devices="tripinfo_car_23" vType="car8" speedFactor="0.89" vaporized=""/>
    <tripinfo id="car_29" depart="7.00" departLane="002_002_2_2" departPos="9.10" departSpeed="11.18" departDelay="0.00" arrival="42.50" arrivalLane="003_002_1_2" arrivalPos="186.40" arrivalSpeed="11.18" duration="35.50" routeLength="388.21" waitingTime="0.00" waitingCount="0" stopTime="0.00" timeLoss="0.34" rerouteNo="1" devices="tripinfo_car_29" vType="car9" speedFactor="0.93" vaporized=""/>
    <tripinfo id="car_34" depart="8.00" departLane="001_002_1_1" departPos="6.10" departSpeed="11.18" departDelay="0.00" arrival="43.40" arrivalLane="001_003_4_2" arrivalPos="186.40" arrivalSpeed="11.18" duration="35.40" routeLength="391.21" waitingTime="0.00" waitingCount="0" stopTime="0.00" timeLoss="0.20" rerouteNo="1" devices="tripinfo_car_34" vType="car6" speedFactor="0.99" vaporized=""/>
    <tripinfo id="car_40" depart="9.00" departLane="002_002_2_2" departPos="9.10" departSpeed="11.18" departDelay="0.00" arrival="44.40" arrivalLane="003_002_1_2" arrivalPos="186.40" arrivalSpeed="11.18" duration="35.40" routeLength="388.21" waitingTime="0.00" waitingCount="0" stopTime="0.00" timeLoss="0.51" rerouteNo="1" devices="tripinfo_car_40" vType="car9" speedFactor="1.03" vaporized=""/>
    <tripinfo id="car_41" depart="10.00" departLane="001_001_4_1" departPos="8.10" departSpeed="11.18" departDelay="0.00" arrival="45.10" arrivalLane="000_001_3_2" arrivalPos="186.40" arrivalSpeed="11.18" duration="35.10" routeLength="389.21" waitingTime="0.00" waitingCount="0" stopTime="0.00" timeLoss="0.01" rerouteNo="1" devices="tripinfo_car_41" vType="car8" speedFactor="0.96" vaporized=""/>
    <tripinfo id="car_47" depart="11.00" departLane="002_001_3_2" departPos="9.10" departSpeed="11.18" departDelay="0.00" arrival="46.60" arrivalLane="002_000_2_2" arrivalPos="186.40" arrivalSpeed="11.18" duration="35.60" routeLength="388.21" waitingTime="0.00" waitingCount="0" stopTime="0.00" timeLoss="0.41" rerouteNo="1" devices="tripinfo_car_47" vType="car9" speedFactor="0.90" vaporized=""/>
    <tripinfo id="car_51" depart="12.00" departLane="001_002_1_0" departPos="6.10" departSpeed="11.18" departDelay="0.00" arrival="47.00" arrivalLane="001_003_4_2" arrivalPos="186.40" arrivalSpeed="11.18" duration="35.00" routeLength="391.21" waitingTime="0.00" waitingCount="0" stopTime="0.00" timeLoss="0.00" rerouteNo="1" devices="tripinfo_car_51" vType="car6" speedFactor="1.17" vaporized=""/>
    <tripinfo id="car_49" depart="12.00" departLane="001_001_4_0" departPos="5.10" departSpeed="11.18" departDelay="0.00" arrival="48.00" arrivalLane="000_001_3_2" arrivalPos="186.40" arrivalSpeed="11.18" duration="36.00" routeLength="392.21" waitingTime="0.00" waitingCount="0" stopTime="0.00" timeLoss="0.25" rerouteNo="1" devices="tripinfo_car_49" vType="car5" speedFactor="0.85" vaporized=""/>
    <tripinfo id="car_53" depart="13.00" departLane="002_001_3_2" departPos="9.10" departSpeed="11.18" departDelay="0.00" arrival="48.60" arrivalLane="002_000_2_2" arrivalPos="186.40" arrivalSpeed="11.18" duration="35.60" routeLength="388.21" waitingTime="0.00" waitingCount="0" stopTime="0.00" timeLoss="0.85" rerouteNo="1" devices="tripinfo_car_53" vType="car9" speedFactor="1.10" vaporized=""/>
    <tripinfo id="car_58" depart="14.70" departLane="002_002_2_0" departPos="7.10" departSpeed="11.18" departDelay="0.70" arrival="49.90" arrivalLane="003_002_1_2" arrivalPos="186.40" arrivalSpeed="11.18" duration="35.20" routeLength="390.21" waitingTime="0.00" waitingCount="0" stopTime="0.00" timeLoss="0.13" rerouteNo="1" devices="tripinfo_car_58" vType="car7" speedFactor="1.02" vaporized=""/>
    <tripinfo id="car_61" depart="15.00" departLane="002_001_3_0" departPos="7.10" departSpeed="11.18" departDelay="0.00" arrival="50.60" arrivalLane="002_000_2_2" arrivalPos="186.40" arrivalSpeed="11.18" duration="35.60" routeLength="390.21" waitingTime="0.00" waitingCount="0" stopTime="0.00" timeLoss="0.66" rerouteNo="1" devices="tripinfo_car_61" vType="car7" speedFactor="1.12" vaporized=""/>
    <tripinfo id="car_4" depart="0.00" departLane="002_002_2_0" departPos="8.10" departSpeed="11.18" departDelay="0.00" arrival="52.00" arrivalLane="000_002_3_0" arrivalPos="186.40" arrivalSpeed="11.18" duration="52.00" routeLength="573.73" waitingTime="0.00" waitingCount="0" stopTime="0.00" timeLoss="0.04" rerouteNo="2" devices="tripinfo_car_4" vType="car8" speedFactor="1.03" vaporized=""/>
    <tripinfo id="car_66" depart="16.00" departLane="002_001_3_1" departPos="9.10" departSpeed="11.18" departDelay="0.00" arrival="53.20" arrivalLane="002_000_2_2" arrivalPos="186.40" arrivalSpeed="11.18" duration="37.20" routeLength="388.21" waitingTime="0.60" waitingCount="1" stopTime="0.00" timeLoss="2.07" rerouteNo="1" devices="tripinfo_car_66" vType="car9" speedFactor="0.91" vaporized=""/>
    <tripinfo id="car_79" depart="19.00" departLane="001_002_1_1" departPos="6.10" departSpeed="11.18" departDelay="0.00" arrival="54.00" arrivalLane="001_003_4_2" arrivalPos="186.40" arrivalSpeed="11.18" duration="35.00" routeLength="391.21" waitingTime="0.00" waitingCount="0" stopTime="0.00" timeLoss="0.00" rerouteNo="1" devices="tripinfo_car_79" vType="car6" speedFactor="1.09" vaporized=""/>
    <tripinfo id="car_71" depart="17.00" departLane="002_001_3_0" departPos="9.10" departSpeed="11.18" departDelay="0.00" arrival="55.80" arrivalLane="002_000_2_2" arrivalPos="186.40" arrivalSpeed="11.18" duration="38.80" routeLength="388.21" waitingTime="2.40" waitingCount="1" stopTime="0.00" timeLoss="3.84" rerouteNo="1" devices="tripinfo_car_71" vType="car9" speedFactor="0.97" vaporized=""/>
    <tripinfo id="car_22" depart="5.00" departLane="002_001_3_1" departPos="6.10" departSpeed="11.18" departDelay="0.00" arrival="56.20" arrivalLane="003_002_1_0" arrivalPos="186.40" arrivalSpeed="11.18" duration="51.20" routeLength="557.56" waitingTime="0.00" waitingCount="0" stopTime="0.00" timeLoss="0.09" rerouteNo="2" devices="tripinfo_car_22" vType="car6" speedFactor="0.98" vaporized=""/>
    <tripinfo id="car_25" depart="6.00" departLane="001_002_1_1" departPos="7.10" departSpeed="11.18" departDelay="0.00" arrival="58.30" arrivalLane="001_000_2_0" arrivalPos="186.40" arrivalSpeed="11.18" duration="52.30" routeLength="574.73" waitingTime="0.00" waitingCount="0" stopTime="0.00" timeLoss="0.05" rerouteNo="2" devices="tripinfo_car_25" vType="car7" speedFactor="0.87" vaporized=""/>
    <tripinfo id="car_91" depart="23.00" departLane="002_002_2_1" departPos="5.10" departSpeed="11.18" departDelay="0.00" arrival="59.00" arrivalLane="003_002_1_2" arrivalPos="186.40" arrivalSpeed="11.18" duration="36.00" routeLength="392.21" waitingTime="0.00" waitingCount="0" stopTime="0.00" timeLoss="0.42" rerouteNo="1" devices="tripinfo_car_91" vType="car5" speedFactor="0.89" vaporized=""/>
    <tripinfo id="car_96" depart="24.00" departLane="002_001_3_1" departPos="7.10" departSpeed="11.18" departDelay="0.00" arrival="59.30" arrivalLane="002_000_2_2" arrivalPos="186.40" arrivalSpeed="11.18" duration="35.30" routeLength="390.21" waitingTime="0.00" waitingCount="0" stopTime="0.00" timeLoss="0.16" rerouteNo="1" devices="tripinfo_car_96" vType="car7" speedFactor="1.01" vaporized=""/>
    <tripinfo id="car_80" depart="20.00" departLane="001_001_4_0" departPos="5.10" departSpeed="11.18" departDelay="0.00" arrival="61.20" arrivalLane="000_001_3_2" arrivalPos="186.40" arrivalSpeed="11.18" duration="41.20" routeLength="392.21" waitingTime="3.60" waitingCount="1" stopTime="0.00" timeLoss="5.95" rerouteNo="1" devices="tripinfo_car_80" vType="car5" speedFactor="1.03" vaporized=""/>
    <tripinfo id="car_10" depart="1.00" departLane="002_002_3_1" departPos="9.10" departSpeed="11.18" departDelay="0.00" arrival="63.00" arrivalLane="002_003_4_0" arrivalPos="186.40" arrivalSpeed="11.18" duration="62.00" routeLength="372.73" waitingTime="28.10" waitingCount="1" stopTime="0.00" timeLoss="28.18" rerouteNo="1" devices="tripinfo_car_10" vType="car9" speedFactor="1.09" vaporized=""/>
    <tripinfo id="car_2" depart="0.00" departLane="002_001_4_2" departPos="5.10" departSpeed="11.18" departDelay="0.00" arrival="63.10" arrivalLane="003_001_1_0" arrivalPos="186.40" arrivalSpeed="11.18" duration="63.10" routeLength="376.73" waitingTime="28.70" waitingCount="1" stopTime="0.00" timeLoss="28.82" rerouteNo="1" devices="tripinfo_car_2" vType="car5" speedFactor="1.01" vaporized=""/>
    <tripinfo id="car_17" depart="3.00" departLane="002_002_2_1" departPos="7.10" departSpeed="11.18" departDelay="0.00" arrival="64.50" arrivalLane="002_000_2_0" arrivalPos="186.40" arrivalSpeed="11.18" duration="61.50" routeLength="592.90" waitingTime="8.20" waitingCount="2" stopTime="0.00" timeLoss="8.39" rerouteNo="2" devices="tripinfo_car_17" vType="car7" speedFactor="0.94" vaporized=""/>
    <tripinfo id="car_3" depart="0.00" departLane="001_002_1_0" departPos="8.10" departSpeed="11.18" departDelay="0.00" arrival="66.50" arrivalLane="003_002_1_0" arrivalPos="186.40" arrivalSpeed="11.18" duration="66.50" routeLength="591.90" waitingTime="11.10" waitingCount="1" stopTime="0.00" timeLoss="13.53" rerouteNo="2" devices="tripinfo_car_3" vType="car8" speedFactor="1.08" vaporized=""/>
    <tripinfo id="car_52" depart="13.60" departLane="001_001_4_2" departPos="6.10" departSpeed="11.18" departDelay="0.60" arrival="66.80" arrivalLane="001_003_4_0" arrivalPos="186.40" arrivalSpeed="11.18" duration="53.20" routeLength="593.90" waitingTime="0.00" waitingCount="0" stopTime="0.00" timeLoss="0.00" rerouteNo="2" devices="tripinfo_car_52" vType="car6" speedFactor="1.02" vaporized=""/>
    <tripinfo id="car_7" depart="1.60" departLane="002_001_4_1" departPos="6.10" departSpeed="11.18" departDelay="0.60" arrival="67.10" arrivalLane="003_001_1_0" arrivalPos="186.40" arrivalSpeed="11.18" duration="65.50" routeLength="375.73" waitingTime="25.20" waitingCount="22" stopTime="0.00" timeLoss="31.09" rerouteNo="1" devices="tripinfo_car_7" vType="car6" speedFactor="0.89" vaporized=""/>
    <tripinfo id="car_19" depart="4.80" departLane="001_002_2_2" departPos="8.10" departSpeed="11.18" departDelay="0.80" arrival="67.10" arrivalLane="000_002_3_0" arrivalPos="186.40" arrivalSpeed="11.18" duration="62.30" routeLength="373.73" waitingTime="20.80" waitingCount="24" stopTime="0.00" timeLoss="28.40" rerouteNo="1" devices="tripinfo_car_19" vType="car8" speedFactor="1.16" vaporized=""/>
    <tripinfo id="car_36" depart="8.00" departLane="002_002_3_2" departPos="5.10" departSpeed="11.18" departDelay="0.00" arrival="67.20" arrivalLane="002_003_4_0" arrivalPos="186.40" arrivalSpeed="11.18" duration="59.20" routeLength="376.73" waitingTime="12.40" waitingCount="25" stopTime="0.00" timeLoss="24.81" rerouteNo="1" devices="tripinfo_car_36" vType="car5" speedFactor="0.97" vaporized=""/>
    <tripinfo id="car_5" depart="1.50" departLane="001_001_1_1" departPos="5.10" departSpeed="11.18" departDelay="0.50" arrival="67.40" arrivalLane="001_000_2_0" arrivalPos="186.40" arrivalSpeed="11.18" duration="65.90" routeLength="376.73" waitingTime="25.60" waitingCount="21" stopTime="0.00" timeLoss="31.34" rerouteNo="1" devices="tripinfo_car_5" vType="car5" speedFactor="0.83" vaporized=""/>
    <tripinfo id="car_45" depart="10.00" departLane="002_002_3_0" departPos="6.10" departSpeed="11.18" departDelay="0.00" arrival="69.50" arrivalLane="002_003_4_0" arrivalPos="186.40" arrivalSpeed="11.18" duration="59.50" routeLength="375.73" waitingTime="9.40" waitingCount="31" stopTime="0.00" timeLoss="25.41" rerouteNo="1" devices="tripinfo_car_45" vType="car6" speedFactor="1.09" vaporized=""/>
    <tripinfo id="car_28" depart="7.00" departLane="001_002_2_2" departPos="7.10" departSpeed="11.18" departDelay="0.00" arrival="70.50" arrivalLane="000_002_3_0" arrivalPos="186.40" arrivalSpeed="11.18" duration="63.50" routeLength="374.73" waitingTime="18.50" waitingCount="36" stopTime="0.00" timeLoss="29.55" rerouteNo="1" devices="tripinfo_car_28" vType="car7" speedFactor="1.13" vaporized=""/>
    <tripinfo id="car_31" depart="8.00" departLane="001_001_1_1" departPos="5.10" departSpeed="11.18" departDelay="0.00" arrival="72.10" arrivalLane="001_000_2_0" arrivalPos="186.40" arrivalSpeed="11.18" duration="64.10" routeLength="376.73" waitingTime="19.00" waitingCount="33" stopTime="0.00" timeLoss="30.01" rerouteNo="1" devices="tripinfo_car_31" vType="car5" speedFactor="1.15" vaporized=""/>
    <tripinfo id="car_78" depart="19.00" departLane="002_001_4_2" departPos="9.10" departSpeed="11.18" departDelay="0.00" arrival="72.70" arrivalLane="003_001_1_0" arrivalPos="186.40" arrivalSpeed="11.18" duration="53.70" routeLength="372.73" waitingTime="5.40" waitingCount="33" stopTime="0.00" timeLoss="19.70" rerouteNo="1" devices="tripinfo_car_78" vType="car9" speedFactor="1.01" vaporized=""/>
    <tripinfo id="car_59" depart="14.50" departLane="002_002_3_2" departPos="5.10" departSpeed="11.18" departDelay="0.50" arrival="73.00" arrivalLane="002_003_4_0" arrivalPos="186.40" arrivalSpeed="11.18" duration="58.50" routeLength="376.73" waitingTime="7.10" waitingCount="41" stopTime="0.00" timeLoss="24.20" rerouteNo="1" devices="tripinfo_car_59" vType="car5" speedFactor="0.97" vaporized=""/>
    <tripinfo id="car_42" depart="12.40" departLane="001_002_2_0" departPos="8.10" departSpeed="11.18" departDelay="2.40" arrival="73.80" arrivalLane="000_002_3_0" arrivalPos="186.40" arrivalSpeed="11.18" duration="61.40" routeLength="373.73" waitingTime="10.40" waitingCount="40" stopTime="0.00" timeLoss="27.41" rerouteNo="1" devices="tripinfo_car_42" vType="car8" speedFactor="1.09" vaporized=""/>
    <tripinfo id="car_57" depart="14.00" departLane="001_001_1_0" departPos="6.10" departSpeed="11.18" departDelay="0.00" arrival="74.50" arrivalLane="001_000_2_0" arrivalPos="186.40" arrivalSpeed="11.18" duration="60.50" routeLength="375.73" waitingTime="15.00" waitingCount="38" stopTime="0.00" timeLoss="26.50" rerouteNo="1" devices="tripinfo_car_57" vType="car6" speedFactor="1.14" vaporized=""/>
    <tripinfo id="car_68" depart="16.00" departLane="002_002_2_1" departPos="9.10" departSpeed="11.18" departDelay="0.00" arrival="77.50" arrivalLane="003_001_1_2" arrivalPos="186.40" arrivalSpeed="11.18" duration="61.50" routeLength="588.21" waitingTime="8.70" waitingCount="1" stopTime="0.00" timeLoss="8.72" rerouteNo="2" devices="tripinfo_car_68" vType="car9" speedFactor="1.04" vaporized=""/>
    <tripinfo id="car_50" depart="14.10" departLane="001_002_2_0" departPos="7.10" departSpeed="11.18" departDelay="2.10" arrival="77.60" arrivalLane="000_002_3_0" arrivalPos="186.40" arrivalSpeed="11.18" duration="63.50" routeLength="374.73" waitingTime="7.40" waitingCount="45" stopTime="0.00" timeLoss="29.12" rerouteNo="1" devices="tripinfo_car_50" vType="car7" speedFactor="0.85" vaporized=""/>
    <tripinfo id="car_88" depart="22.70" departLane="001_002_1_0" departPos="7.10" departSpeed="11.18" departDelay="0.70" arrival="77.70" arrivalLane="003_002_1_0" arrivalPos="186.40" arrivalSpeed="11.18" duration="55.00" routeLength="592.90" waitingTime="0.00" waitingCount="0" stopTime="0.00" timeLoss="1.93" rerouteNo="2" devices="tripinfo_car_88" vType="car7" speedFactor="1.01" vaporized=""/>
    <tripinfo id="car_69" depart="17.00" departLane="001_001_1_1" departPos="6.10" departSpeed="11.18" departDelay="0.00" arrival="78.00" arrivalLane="001_000_2_0" arrivalPos="186.40" arrivalSpeed="11.18" duration="61.00" routeLength="375.73" waitingTime="12.50" waitingCount="46" stopTime="0.00" timeLoss="26.82" rerouteNo="1" devices="tripinfo_car_69" vType="car6" speedFactor="1.02" vaporized=""/>
    <tripinfo id="car_106" depart="26.00" departLane="002_002_3_2" departPos="8.10" departSpeed="11.18" departDelay="0.00" arrival="78.20" arrivalLane="002_003_4_0" arrivalPos="186.40" arrivalSpeed="11.18" duration="52.20" routeLength="373.73" waitingTime="0.80" waitingCount="8" stopTime="0.00" timeLoss="18.17" rerouteNo="1" devices="tripinfo_car_106" vType="car8" speedFactor="1.01" vaporized=""/>
    <tripinfo id="car_131" depart="33.00" departLane="002_001_4_1" departPos="5.10" departSpeed="11.18" departDelay="0.00" arrival="78.60" arrivalLane="003_001_1_0" arrivalPos="186.40" arrivalSpeed="11.18" duration="45.60" routeLength="376.73" waitingTime="1.10" waitingCount="11" stopTime="0.00" timeLoss="11.38" rerouteNo="1" devices="tripinfo_car_131" vType="car5" speedFactor="1.07" vaporized=""/>
    <tripinfo id="car_101" depart="25.70" departLane="002_001_3_2" departPos="7.10" departSpeed="11.18" departDelay="0.70" arrival="79.80" arrivalLane="001_000_2_2" arrivalPos="186.40" arrivalSpeed="11.18" duration="54.10" routeLength="590.21" waitingTime="0.90" waitingCount="1" stopTime="0.00" timeLoss="0.94" rerouteNo="2" devices="tripinfo_car_101" vType="car7" speedFactor="0.96" vaporized=""/>
    <tripinfo id="car_65" depart="16.00" departLane="001_002_2_0" departPos="9.10" departSpeed="11.18" departDelay="0.00" arrival="80.80" arrivalLane="000_002_3_0" arrivalPos="186.40" arrivalSpeed="11.18" duration="64.80" routeLength="372.73" waitingTime="5.30" waitingCount="53" stopTime="0.00" timeLoss="30.67" rerouteNo="1" devices="tripinfo_car_65" vType="car9" speedFactor="0.88" vaporized=""/>
    <tripinfo id="car_136" depart="35.00" departLane="002_002_3_1" departPos="9.10" departSpeed="11.18" departDelay="0.00" arrival="80.80" arrivalLane="002_003_4_0" arrivalPos="186.40" arrivalSpeed="11.18" duration="45.80" routeLength="372.73" waitingTime="0.00" waitingCount="0" stopTime="0.00" timeLoss="12.01" rerouteNo="1" devices="tripinfo_car_136" vType="car9" speedFactor="1.12" vaporized=""/>
    <tripinfo id="car_145" depart="37.00" departLane="002_001_4_0" departPos="8.10" departSpeed="11.18" departDelay="0.00" arrival="80.90" arrivalLane="003_001_1_0" arrivalPos="186.40" arrivalSpeed="11.18" duration="43.90" routeLength="373.73" waitingTime="0.20" waitingCount="2" stopTime="0.00" timeLoss="10.08" rerouteNo="1" devices="tripinfo_car_145" vType="car8" speedFactor="1.14" vaporized=""/>
    <tripinfo id="car_81" depart="20.00" departLane="001_001_1_0" departPos="7.10" departSpeed="11.18" departDelay="0.00" arrival="81.00" arrivalLane="001_000_2_0" arrivalPos="186.40" arrivalSpeed="11.18" duration="61.00" routeLength="374.73" waitingTime="10.30" waitingCount="55" stopTime="0.00" timeLoss="26.84" rerouteNo="1" devices="tripinfo_car_81" vType="car7" speedFactor="1.00" vaporized=""/>
    <tripinfo id="car_27" depart="7.00" departLane="001_001_1_0" departPos="5.10" departSpeed="11.18" departDelay="0.00" arrival="82.10" arrivalLane="001_003_4_0" arrivalPos="186.40" arrivalSpeed="11.18" duration="75.10" routeLength="592.21" waitingTime="21.70" waitingCount="1" stopTime="0.00" timeLoss="21.80" rerouteNo="2" devices="tripinfo_car_27" vType="car5" speedFactor="0.95" vaporized=""/>
    <tripinfo id="car_128" depart="32.00" departLane="001_001_1_0" departPos="5.10" departSpeed="11.18" departDelay="0.00" arrival="83.40" arrivalLane="001_000_2_0" arrivalPos="186.40" arrivalSpeed="11.18" duration="51.40" routeLength="376.73" waitingTime="3.90" waitingCount="39" stopTime="0.00" timeLoss="17.21" rerouteNo="1" devices="tripinfo_car_128" vType="car5" speedFactor="1.12" vaporized=""/>
    <tripinfo id="car_70" depart="17.80" departLane="001_002_2_0" departPos="8.10" departSpeed="11.18" departDelay="0.80" arrival="83.50" arrivalLane="000_002_3_0" arrivalPos="186.40" arrivalSpeed="11.18" duration="65.70" routeLength="373.73" waitingTime="4.50" waitingCount="45" stopTime="0.00" timeLoss="31.72" rerouteNo="1" devices="tripinfo_car_70" vType="car8" speedFactor="1.02" vaporized=""/>
    <tripinfo id="car_154" depart="39.00" departLane="002_001_4_2" departPos="8.10" departSpeed="11.18" departDelay="0.00" arrival="84.40" arrivalLane="003_001_1_0" arrivalPos="186.40" arrivalSpeed="11.18" duration="45.40" routeLength="373.73" waitingTime="0.00" waitingCount="0" stopTime="0.00" timeLoss="11.40" rerouteNo="1" devices="tripinfo_car_154" vType="car8" speedFactor="1.06" vaporized=""/>
    <tripinfo id="car_171" depart="42.00" departLane="002_002_3_0" departPos="6.10" departSpeed="11.18" departDelay="0.00" arrival="84.80" arrivalLane="002_003_4_0" arrivalPos="186.40" arrivalSpeed="11.18" duration="42.80" routeLength="375.73" waitingTime="0.00" waitingCount="0" stopTime="0.00" timeLoss="8.46" rerouteNo="1" devices="tripinfo_car_171" vType="car6" speedFactor="0.90" vaporized=""/>
    <tripinfo id="car_38" depart="9.50" departLane="001_002_2_0" departPos="5.10" departSpeed="11.18" departDelay="0.50" arrival="85.10" arrivalLane="003_002_1_0" arrivalPos="186.40" arrivalSpeed="11.18" duration="75.60" routeLength="592.21" waitingTime="22.40" waitingCount="2" stopTime="0.00" timeLoss="22.60" rerouteNo="2" devices="tripinfo_car_38" vType="car5" speedFactor="1.10" vaporized=""/>
    <tripinfo id="car_143" depart="37.00" departLane="001_001_1_2" departPos="7.10" departSpeed="11.18" departDelay="0.00" arrival="85.70" arrivalLane="001_000_2_0" arrivalPos="186.40" arrivalSpeed="11.18" duration="48.70" routeLength="374.73" waitingTime="1.90" waitingCount="19" stopTime="0.00" timeLoss="14.76" rerouteNo="1" devices="tripinfo_car_143" vType="car7" speedFactor="1.13" vaporized=""/>
    <tripinfo id="car_13" depart="2.00" departLane="001_002_1_2" departPos="9.10" departSpeed="11.18" departDelay="0.00" arrival="86.10" arrivalLane="002_003_4_2" arrivalPos="186.40" arrivalSpeed="11.18" duration="84.10" routeLength="588.21" waitingTime="31.30" waitingCount="2" stopTime="0.00" timeLoss="31.47" rerouteNo="2" devices="tripinfo_car_13" vType="car9" speedFactor="1.12" vaporized=""/>
    <tripinfo id="car_33" depart="8.00" departLane="002_001_4_2" departPos="6.10" departSpeed="11.18" departDelay="0.00" arrival="86.40" arrivalLane="001_000_2_2" arrivalPos="186.40" arrivalSpeed="11.18" duration="78.40" routeLength="588.52" waitingTime="21.80" waitingCount="2" stopTime="0.00" timeLoss="25.73" rerouteNo="2" devices="tripinfo_car_33" vType="car6" speedFactor="1.17" vaporized=""/>
    <tripinfo id="car_159" depart="40.80" departLane="002_001_4_0" departPos="9.10" departSpeed="11.18" departDelay="0.80" arrival="86.80" arrivalLane="003_001_1_0" arrivalPos="186.40" arrivalSpeed="11.18" duration="46.00" routeLength="372.73" waitingTime="0.00" waitingCount="0" stopTime="0.00" timeLoss="12.24" rerouteNo="1" devices="tripinfo_car_159" vType="car9" speedFactor="1.14" vaporized=""/>
    <tripinfo id="car_82" depart="20.00" departLane="001_002_2_0" departPos="8.10" departSpeed="11.18" departDelay="0.00" arrival="86.90" arrivalLane="000_002_3_0" arrivalPos="186.40" arrivalSpeed="11.18" duration="66.90" routeLength="373.73" waitingTime="3.70" waitingCount="37" stopTime="0.00" timeLoss="32.91" rerouteNo="1" devices="tripinfo_car_82" vType="car8" speedFactor="1.02" vaporized=""/>
    <tripinfo id="car_174" depart="43.80" departLane="002_002_3_2" departPos="5.10" departSpeed="11.18" departDelay="0.80" arrival="87.20" arrivalLane="002_003_4_0" arrivalPos="186.40" arrivalSpeed="11.18" duration="43.40" routeLength="376.73" waitingTime="0.00" waitingCount="0" stopTime="0.00" timeLoss="9.07" rerouteNo="1" devices="tripinfo_car_174" vType="car5" speedFactor="0.96" vaporized=""/>
    <tripinfo id="car_180" depart="45.00" departLane="002_002_3_2" departPos="6.10" departSpeed="11.18" departDelay="0.00" arrival="89.40" arrivalLane="002_003_4_0" arrivalPos="186.40" arrivalSpeed="11.18" duration="44.40" routeLength="375.73" waitingTime="0.00" waitingCount="0" stopTime="0.00" timeLoss="10.29" rerouteNo="1" devices="tripinfo_car_180" vType="car6" speedFactor="1.10" vaporized=""/>
    <tripinfo id="car_187" depart="47.00" departLane="002_001_4_2" departPos="6.10" departSpeed="11.18" departDelay="0.00" arrival="90.60" arrivalLane="003_001_1_0" arrivalPos="186.40" arrivalSpeed="11.18" duration="43.60" routeLength="375.73" waitingTime="0.00" waitingCount="0" stopTime="0.00" timeLoss="9.27" rerouteNo="1" devices="tripinfo_car_187" vType="car6" speedFactor="0.89" vaporized=""/>
    <tripinfo id="car_162" depart="41.00" departLane="001_001_1_0" departPos="7.10" departSpeed="11.18" departDelay="0.00" arrival="91.40" arrivalLane="001_000_2_0" arrivalPos="186.40" arrivalSpeed="11.18" duration="50.40" routeLength="374.73" waitingTime="1.20" waitingCount="12" stopTime="0.00" timeLoss="16.26" rerouteNo="1" devices="tripinfo_car_162" vType="car7" speedFactor="0.99" vaporized=""/>
    <tripinfo id="car_48" depart="11.00" departLane="002_002_2_0" departPos="6.10" departSpeed="11.18" departDelay="0.00" arrival="91.70" arrivalLane="003_001_1_2" arrivalPos="186.40" arrivalSpeed="11.18" duration="80.70" routeLength="591.21" waitingTime="18.90" waitingCount="4" stopTime="0.00" timeLoss="27.26" rerouteNo="2" devices="tripinfo_car_48" vType="car6" speedFactor="0.88" vaporized=""/>
    <tripinfo id="car_123" depart="31.70" departLane="001_002_2_1" departPos="7.10" departSpeed="11.18" departDelay="0.70" arrival="92.20" arrivalLane="000_002_3_0" arrivalPos="186.40" arrivalSpeed="11.18" duration="60.50" routeLength="374.73" waitingTime="3.00" waitingCount="30" stopTime="0.00" timeLoss="26.38" rerouteNo="1" devices="tripinfo_car_123" vType="car7" speedFactor="1.02" vaporized=""/>
    <tripinfo id="car_85" depart="21.00" departLane="002_001_3_1" departPos="5.10" departSpeed="11.18" departDelay="0.00" arrival="92.30" arrivalLane="001_003_4_0" arrivalPos="186.40" arrivalSpeed="11.18" duration="71.30" routeLength="776.73" waitingTime="0.00" waitingCount="0" stopTime="0.00" timeLoss="1.17" rerouteNo="3" devices="tripinfo_car_85" vType="car5" speedFactor="0.98" vaporized=""/>
    <tripinfo id="car_119" depart="29.00" departLane="002_001_4_0" departPos="7.10" departSpeed="11.18" departDelay="0.00" arrival="92.60" arrivalLane="000_001_3_0" arrivalPos="186.40" arrivalSpeed="11.18" duration="63.60" routeLength="590.21" waitingTime="1.10" waitingCount="11" stopTime="0.00" timeLoss="10.75" rerouteNo="2" devices="tripinfo_car_119" vType="car7" speedFactor="1.07" vaporized=""/>
    <tripinfo id="car_76" depart="19.80" departLane="001_001_1_1" departPos="8.10" departSpeed="11.18" departDelay="0.80" arrival="92.90" arrivalLane="001_003_4_1" arrivalPos="186.40" arrivalSpeed="11.18" duration="73.10" routeLength="589.21" waitingTime="8.50" waitingCount="34" stopTime="0.00" timeLoss="20.23" rerouteNo="2" devices="tripinfo_car_76" vType="car8" speedFactor="1.03" vaporized=""/>
    <tripinfo id="car_64" depart="16.00" departLane="001_001_1_0" departPos="8.10" departSpeed="11.18" departDelay="0.00" arrival="93.80" arrivalLane="000_002_3_2" arrivalPos="186.40" arrivalSpeed="11.18" duration="77.80" routeLength="586.52" waitingTime="17.00" waitingCount="26" stopTime="0.00" timeLoss="24.62" rerouteNo="2" devices="tripinfo_car_64" vType="car8" speedFactor="0.94" vaporized=""/>
    <tripinfo id="car_222" depart="58.00" departLane="002_002_3_2" departPos="6.10" departSpeed="11.18" departDelay="0.00" arrival="93.80" arrivalLane="002_003_4_0" arrivalPos="186.40" arrivalSpeed="11.18" duration="35.80" routeLength="375.73" waitingTime="0.00" waitingCount="0" stopTime="0.00" timeLoss="1.29" rerouteNo="1" devices="tripinfo_car_222" vType="car6" speedFactor="0.84" vaporized=""/>