<?xml version="1.0" encoding="UTF-8"?>

<!-- generated on Sat Jan 30 01:05:46 2021 by Eclipse SUMO sumo Version 1.8.0
<configuration xmlns:xsi="http://www.w3.org/2001/XMLSchema-instance" xsi:noNamespaceSchemaLocation="http://sumo.dlr.de/xsd/sumoConfiguration.xsd">

    <input>
        <net-file value="data/two_inter.net.xml"/>
        <route-files value="data/icacc+.rou.xml"/>
    </input>

    <output>
        <tripinfo-output value="tripinfo.xml"/>
    </output>

    <time>
        <begin value="0"/>
        <step-length value="0.1"/>
    </time>

    <processing>
        <threads value="8"/>
        <collision.mingap-factor value="0"/>
        <time-to-teleport value="-1"/>
        <default.speeddev value="1"/>
    </processing>

    <report>
        <verbose value="true"/>
        <log value="error_log.txt"/>
        <no-step-log value="true"/>
    </report>

    <traci_server>
        <remote-port value="44628"/>
    </traci_server>

    <gui_only>
        <start value="true"/>
        <tracker-interval value="0.1"/>
    </gui_only>

</configuration>
-->

<tripinfos xmlns:xsi="http://www.w3.org/2001/XMLSchema-instance" xsi:noNamespaceSchemaLocation="http://sumo.dlr.de/xsd/tripinfo_file.xsd">
    <tripinfo id="RX_3" depart="0.00" departLane="002_001_4_0" departPos="7.10" departSpeed="11.18" departDelay="0.00" arrival="36.00" arrivalLane="003_001_1_0" arrivalPos="200.00" arrivalSpeed="11.18" duration="36.00" routeLength="401.93" waitingTime="0.00" waitingCount="0" stopTime="0.00" timeLoss="-2.21" rerouteNo="1" devices="tripinfo_RX_3" vType="car7@RX_3" speedFactor="1.83" vaporized=""/>
    <tripinfo id="RX_1" depart="0.00" departLane="001_001_2_0" departPos="6.10" departSpeed="11.18" departDelay="0.00" arrival="36.10" arrivalLane="000_001_3_0" arrivalPos="200.00" arrivalSpeed="11.18" duration="36.10" routeLength="402.93" waitingTime="0.00" waitingCount="0" stopTime="0.00" timeLoss="-2.20" rerouteNo="1" devices="tripinfo_RX_1" vType="car6@RX_1" speedFactor="1.60" vaporized=""/>
    <tripinfo id="RX_6" depart="1.00" departLane="002_001_3_0" departPos="6.10" departSpeed="11.18" departDelay="0.00" arrival="37.10" arrivalLane="002_002_4_0" arrivalPos="200.00" arrivalSpeed="11.18" duration="36.10" routeLength="402.93" waitingTime="0.00" waitingCount="0" stopTime="0.00" timeLoss="-2.74" rerouteNo="1" devices="tripinfo_RX_6" vType="car6@RX_6" speedFactor="1.00" vaporized=""/>
    <tripinfo id="RX_4" depart="1.00" departLane="001_001_1_0" departPos="5.10" departSpeed="11.18" departDelay="0.00" arrival="37.20" arrivalLane="001_000_2_0" arrivalPos="200.00" arrivalSpeed="11.18" duration="36.20" routeLength="403.93" waitingTime="0.00" waitingCount="0" stopTime="0.00" timeLoss="-2.36" rerouteNo="1" devices="tripinfo_RX_4" vType="car5@RX_4" speedFactor="1.30" vaporized=""/>
    <tripinfo id="LX_2" depart="0.00" departLane="002_001_3_2" departPos="7.10" departSpeed="11.18" departDelay="0.00" arrival="37.30" arrivalLane="002_000_2_2" arrivalPos="200.00" arrivalSpeed="11.18" duration="37.30" routeLength="416.12" waitingTime="0.00" waitingCount="0" stopTime="0.00" timeLoss="-2.36" rerouteNo="1" devices="tripinfo_LX_2" vType="car7@LX_2" speedFactor="1.10" vaporized=""/>
    <tripinfo id="RX_14" depart="3.00" departLane="002_001_4_0" departPos="7.10" departSpeed="11.18" departDelay="0.00" arrival="39.00" arrivalLane="003_001_1_0" arrivalPos="200.00" arrivalSpeed="11.18" duration="36.00" routeLength="401.93" waitingTime="0.00" waitingCount="0" stopTime="0.00" timeLoss="-2.47" rerouteNo="1" devices="tripinfo_RX_14" vType="car7@RX_14" speedFactor="1.18" vaporized=""/>
    <tripinfo id="RX_9" depart="2.30" departLane="002_001_3_0" departPos="7.10" departSpeed="11.18" departDelay="0.30" arrival="39.20" arrivalLane="002_002_4_2" arrivalPos="200.00" arrivalSpeed="11.18" duration="36.90" routeLength="412.25" waitingTime="0.00" waitingCount="0" stopTime="0.00" timeLoss="-2.31" rerouteNo="1" devices="tripinfo_RX_9" vType="car7@RX_9" speedFactor="1.47" vaporized=""/>
    <tripinfo id="SX_5" depart="1.00" departLane="001_001_2_1" departPos="6.10" departSpeed="11.18" departDelay="0.00" arrival="39.30" arrivalLane="001_000_2_0" arrivalPos="200.00" arrivalSpeed="11.18" duration="38.30" routeLength="421.10" waitingTime="0.00" waitingCount="0" stopTime="0.00" timeLoss="0.56" rerouteNo="1" devices="tripinfo_SX_5" vType="car6@SX_5" speedFactor="1.46" vaporized=""/>
    <tripinfo id="RX_16" depart="4.00" departLane="001_001_2_0" departPos="9.10" departSpeed="11.18" departDelay="0.00" arrival="39.80" arrivalLane="000_001_3_0" arrivalPos="200.00" arrivalSpeed="11.18" duration="35.80" routeLength="399.93" waitingTime="0.00" waitingCount="0" stopTime="0.00" timeLoss="-2.74" rerouteNo="1" devices="tripinfo_RX_16" vType="car9@RX_16" speedFactor="1.00" vaporized=""/>
    <tripinfo id="RX_20" depart="4.10" departLane="002_001_4_0" departPos="5.10" departSpeed="11.18" departDelay="0.10" arrival="40.30" arrivalLane="003_001_1_0" arrivalPos="200.00" arrivalSpeed="11.18" duration="36.20" routeLength="403.93" waitingTime="0.00" waitingCount="0" stopTime="0.00" timeLoss="-2.24" rerouteNo="1" devices="tripinfo_RX_20" vType="car5@RX_20" speedFactor="1.47" vaporized=""/>
    <tripinfo id="RX_23" depart="6.00" departLane="001_001_1_0" departPos="8.10" departSpeed="11.18" departDelay="0.00" arrival="41.90" arrivalLane="001_000_2_0" arrivalPos="200.00" arrivalSpeed="11.18" duration="35.90" routeLength="400.93" waitingTime="0.00" waitingCount="0" stopTime="0.00" timeLoss="-2.36" rerouteNo="1" devices="tripinfo_RX_23" vType="car8@RX_23" speedFactor="1.30" vaporized=""/>
    <tripinfo id="SX_13" depart="3.00" departLane="002_001_2_1" departPos="7.10" departSpeed="11.18" departDelay="0.00" arrival="42.10" arrivalLane="002_000_2_2" arrivalPos="200.00" arrivalSpeed="11.18" duration="39.10" routeLength="420.10" waitingTime="0.00" waitingCount="0" stopTime="0.00" timeLoss="-0.09" rerouteNo="1" devices="tripinfo_SX_13" vType="car7@SX_13" speedFactor="1.46" vaporized=""/>
    <tripinfo id="RX_26" depart="6.00" departLane="002_001_3_0" departPos="6.10" departSpeed="11.18" departDelay="0.00" arrival="42.10" arrivalLane="002_002_4_0" arrivalPos="200.00" arrivalSpeed="11.18" duration="36.10" routeLength="402.93" waitingTime="0.00" waitingCount="0" stopTime="0.00" timeLoss="-2.31" rerouteNo="1" devices="tripinfo_RX_26" vType="car6@RX_26" speedFactor="1.38" vaporized=""/>
    <tripinfo id="LX_17" depart="4.00" departLane="001_001_4_2" departPos="6.10" departSpeed="11.18" departDelay="0.00" arrival="43.00" arrivalLane="000_001_3_2" arrivalPos="200.00" arrivalSpeed="11.18" duration="39.00" routeLength="417.11" waitingTime="0.00" waitingCount="0" stopTime="0.00" timeLoss="-2.76" rerouteNo="1" devices="tripinfo_LX_17" vType="car6@LX_17" speedFactor="1.91" vaporized=""/>
    <tripinfo id="LX_22" depart="5.30" departLane="001_001_4_2" departPos="7.10" departSpeed="11.18" departDelay="0.30" arrival="43.90" arrivalLane="000_001_3_2" arrivalPos="200.00" arrivalSpeed="11.18" duration="38.60" routeLength="416.11" waitingTime="0.00" waitingCount="0" stopTime="0.00" timeLoss="-1.12" rerouteNo="1" devices="tripinfo_LX_22" vType="car7@LX_22" speedFactor="1.00" vaporized=""/>
    <tripinfo id="LX_25" depart="6.50" departLane="001_001_4_2" departPos="6.10" departSpeed="11.18" departDelay="0.50" arrival="44.80" arrivalLane="000_001_3_2" arrivalPos="200.00" arrivalSpeed="11.18" duration="38.30" routeLength="417.11" waitingTime="0.00" waitingCount="0" stopTime="0.00" timeLoss="-1.52" rerouteNo="1" devices="tripinfo_LX_25" vType="car6@LX_25" speedFactor="1.92" vaporized=""/>
    <tripinfo id="LX_31" depart="8.00" departLane="002_001_3_2" departPos="8.10" departSpeed="11.18" departDelay="0.00" arrival="45.20" arrivalLane="002_000_2_2" arrivalPos="200.00" arrivalSpeed="11.18" duration="37.20" routeLength="415.12" waitingTime="0.00" waitingCount="0" stopTime="0.00" timeLoss="-2.36" rerouteNo="1" devices="tripinfo_LX_31" vType="car8@LX_31" speedFactor="1.96" vaporized=""/>
    <tripinfo id="SX_24" depart="6.00" departLane="001_001_2_1" departPos="6.10" departSpeed="11.18" departDelay="0.00" arrival="46.00" arrivalLane="001_000_2_2" arrivalPos="200.00" arrivalSpeed="11.18" duration="40.00" routeLength="421.10" waitingTime="0.50" waitingCount="1" stopTime="0.00" timeLoss="-4692.34" rerouteNo="1" devices="tripinfo_SX_24" vType="car6@SX_24" speedFactor="1.00" vaporized=""/>
    <tripinfo id="SX_27" depart="7.00" departLane="001_001_2_1" departPos="9.10" departSpeed="11.18" departDelay="0.00" arrival="46.90" arrivalLane="001_000_2_1" arrivalPos="200.00" arrivalSpeed="11.18" duration="39.90" routeLength="418.10" waitingTime="0.00" waitingCount="0" stopTime="0.00" timeLoss="-0.24" rerouteNo="1" devices="tripinfo_SX_27" vType="car9@SX_27" speedFactor="1.43" vaporized=""/>
    <tripinfo id="RX_42" depart="11.00" departLane="002_001_4_0" departPos="8.10" departSpeed="11.18" departDelay="0.00" arrival="46.90" arrivalLane="003_001_1_0" arrivalPos="200.00" arrivalSpeed="11.18" duration="35.90" routeLength="400.93" waitingTime="0.00" waitingCount="0" stopTime="0.00" timeLoss="-2.42" rerouteNo="1" devices="tripinfo_RX_42" vType="car8@RX_42" speedFactor="1.23" vaporized=""/>
    <tripinfo id="SX_30" depart="8.00" departLane="002_001_2_1" departPos="8.10" departSpeed="11.18" departDelay="0.00" arrival="47.20" arrivalLane="002_000_2_2" arrivalPos="200.00" arrivalSpeed="11.18" duration="39.20" routeLength="419.10" waitingTime="0.10" waitingCount="1" stopTime="0.00" timeLoss="-4480.65" rerouteNo="1" devices="tripinfo_SX_30" vType="car8@SX_30" speedFactor="1.17" vaporized=""/>
    <tripinfo id="RX_39" depart="11.00" departLane="001_001_1_0" departPos="5.10" departSpeed="11.18" departDelay="0.00" arrival="47.20" arrivalLane="001_000_2_0" arrivalPos="200.00" arrivalSpeed="11.18" duration="36.20" routeLength="403.93" waitingTime="0.00" waitingCount="0" stopTime="0.00" timeLoss="-2.67" rerouteNo="1" devices="tripinfo_RX_39" vType="car5@RX_39" speedFactor="1.00" vaporized=""/>
    <tripinfo id="LX_35" depart="9.50" departLane="002_001_2_2" departPos="9.10" departSpeed="11.18" departDelay="0.50" arrival="47.80" arrivalLane="003_001_1_2" arrivalPos="200.00" arrivalSpeed="11.18" duration="38.30" routeLength="414.11" waitingTime="0.20" waitingCount="1" stopTime="0.00" timeLoss="-1.18" rerouteNo="1" devices="tripinfo_LX_35" vType="car9@LX_35" speedFactor="1.18" vaporized=""/>
    <tripinfo id="LX_32" depart="9.00" departLane="001_001_1_2" departPos="7.10" departSpeed="11.18" departDelay="0.00" arrival="48.50" arrivalLane="001_002_4_2" arrivalPos="200.00" arrivalSpeed="11.18" duration="39.50" routeLength="416.12" waitingTime="1.30" waitingCount="1" stopTime="0.00" timeLoss="-4297.94" rerouteNo="1" devices="tripinfo_LX_32" vType="car7@LX_32" speedFactor="1.03" vaporized=""/>
    <tripinfo id="LX_34" depart="9.00" departLane="001_001_4_2" departPos="6.10" departSpeed="11.18" departDelay="0.00" arrival="48.80" arrivalLane="000_001_3_2" arrivalPos="200.00" arrivalSpeed="11.18" duration="39.80" routeLength="417.11" waitingTime="0.00" waitingCount="0" stopTime="0.00" timeLoss="-2.45" rerouteNo="1" devices="tripinfo_LX_34" vType="car6@LX_34" speedFactor="1.24" vaporized=""/>
    <tripinfo id="LX_40" depart="11.00" departLane="002_001_2_2" departPos="8.10" departSpeed="11.18" departDelay="0.00" arrival="49.00" arrivalLane="003_001_1_2" arrivalPos="200.00" arrivalSpeed="11.18" duration="38.00" routeLength="415.11" waitingTime="0.00" waitingCount="0" stopTime="0.00" timeLoss="-1.74" rerouteNo="1" devices="tripinfo_LX_40" vType="car8@LX_40" speedFactor="1.40" vaporized=""/>
    <tripinfo id="RX_46" depart="14.00" departLane="001_001_1_0" departPos="6.10" departSpeed="11.18" departDelay="0.00" arrival="50.10" arrivalLane="001_000_2_0" arrivalPos="200.00" arrivalSpeed="11.18" duration="36.10" routeLength="402.93" waitingTime="0.00" waitingCount="0" stopTime="0.00" timeLoss="-2.61" rerouteNo="1" devices="tripinfo_RX_46" vType="car6@RX_46" speedFactor="1.05" vaporized=""/>
    <tripinfo id="RX_41" depart="11.50" departLane="002_001_3_0" departPos="9.10" departSpeed="11.18" departDelay="0.50" arrival="50.40" arrivalLane="002_002_4_0" arrivalPos="200.00" arrivalSpeed="11.18" duration="38.90" routeLength="399.93" waitingTime="0.00" waitingCount="0" stopTime="0.00" timeLoss="0.64" rerouteNo="1" devices="tripinfo_RX_41" vType="car9@RX_41" speedFactor="1.22" vaporized=""/>
    <tripinfo id="SX_45" depart="13.00" departLane="001_001_4_1" departPos="7.10" departSpeed="11.18" departDelay="0.00" arrival="50.60" arrivalLane="001_002_4_1" arrivalPos="200.00" arrivalSpeed="11.18" duration="37.60" routeLength="420.10" waitingTime="0.00" waitingCount="0" stopTime="0.00" timeLoss="0.00" rerouteNo="1" devices="tripinfo_SX_45" vType="car7@SX_45" speedFactor="1.56" vaporized=""/>
    <tripinfo id="RX_49" depart="14.00" departLane="002_001_4_0" departPos="7.10" departSpeed="11.18" departDelay="0.00" arrival="50.90" arrivalLane="003_001_1_2" arrivalPos="200.00" arrivalSpeed="11.18" duration="36.90" routeLength="412.26" waitingTime="0.00" waitingCount="0" stopTime="0.00" timeLoss="-2.31" rerouteNo="1" devices="tripinfo_RX_49" vType="car7@RX_49" speedFactor="1.20" vaporized=""/>
    <tripinfo id="LX_36" depart="10.20" departLane="001_001_1_2" departPos="6.10" departSpeed="11.18" departDelay="0.20" arrival="51.50" arrivalLane="001_002_4_2" arrivalPos="200.00" arrivalSpeed="11.18" duration="41.30" routeLength="417.12" waitingTime="2.10" waitingCount="2" stopTime="0.00" timeLoss="-4834.84" rerouteNo="1" devices="tripinfo_LX_36" vType="car6@LX_36" speedFactor="1.82" vaporized=""/>
    <tripinfo id="LX_44" depart="13.00" departLane="001_001_1_2" departPos="5.10" departSpeed="11.18" departDelay="0.00" arrival="52.30" arrivalLane="001_002_4_2" arrivalPos="200.00" arrivalSpeed="11.18" duration="39.30" routeLength="418.12" waitingTime="1.00" waitingCount="1" stopTime="0.00" timeLoss="-0.55" rerouteNo="1" devices="tripinfo_LX_44" vType="car5@LX_44" speedFactor="1.00" vaporized=""/>
    <tripinfo id="RX_51" depart="15.30" departLane="001_001_2_0" departPos="7.10" departSpeed="11.18" departDelay="0.30" arrival="52.30" arrivalLane="000_001_3_0" arrivalPos="200.00" arrivalSpeed="11.18" duration="37.00" routeLength="401.93" waitingTime="0.00" waitingCount="0" stopTime="0.00" timeLoss="-1.20" rerouteNo="1" devices="tripinfo_RX_51" vType="car7@RX_51" speedFactor="1.87" vaporized=""/>
    <tripinfo id="SX_47" depart="14.00" departLane="001_001_2_1" departPos="5.10" departSpeed="11.18" departDelay="0.00" arrival="53.20" arrivalLane="001_000_2_0" arrivalPos="200.00" arrivalSpeed="11.18" duration="39.20" routeLength="422.10" waitingTime="0.00" waitingCount="0" stopTime="0.00" timeLoss="-0.11" rerouteNo="1" devices="tripinfo_SX_47" vType="car5@SX_47" speedFactor="1.00" vaporized=""/>
    <tripinfo id="SX_55" depart="16.00" departLane="002_001_2_1" departPos="8.10" departSpeed="11.18" departDelay="0.00" arrival="53.50" arrivalLane="002_000_2_2" arrivalPos="200.00" arrivalSpeed="11.18" duration="37.50" routeLength="419.10" waitingTime="0.00" waitingCount="0" stopTime="0.00" timeLoss="0.00" rerouteNo="1" devices="tripinfo_SX_55" vType="car8@SX_55" speedFactor="1.30" vaporized=""/>
    <tripinfo id="SX_43" depart="12.00" departLane="002_001_2_1" departPos="6.10" departSpeed="11.18" departDelay="0.00" arrival="53.60" arrivalLane="002_000_2_1" arrivalPos="200.00" arrivalSpeed="11.18" duration="41.60" routeLength="421.10" waitingTime="0.00" waitingCount="0" stopTime="0.00" timeLoss="-0.48" rerouteNo="1" devices="tripinfo_SX_43" vType="car6@SX_43" speedFactor="1.00" vaporized=""/>
    <tripinfo id="SX_54" depart="16.00" departLane="001_001_2_1" departPos="9.10" departSpeed="11.18" departDelay="0.00" arrival="53.70" arrivalLane="001_000_2_1" arrivalPos="200.00" arrivalSpeed="11.18" duration="37.70" routeLength="418.10" waitingTime="0.00" waitingCount="0" stopTime="0.00" timeLoss="-0.00" rerouteNo="1" devices="tripinfo_SX_54" vType="car9@SX_54" speedFactor="1.17" vaporized=""/>
    <tripinfo id="SX_61" depart="17.00" departLane="002_001_4_1" departPos="9.10" departSpeed="11.18" departDelay="0.00" arrival="54.40" arrivalLane="002_002_4_1" arrivalPos="200.00" arrivalSpeed="11.18" duration="37.40" routeLength="418.10" waitingTime="0.00" waitingCount="0" stopTime="0.00" timeLoss="0.00" rerouteNo="1" devices="tripinfo_SX_61" vType="car9@SX_61" speedFactor="1.17" vaporized=""/>
    <tripinfo id="SX_59" depart="17.00" departLane="001_001_4_1" departPos="8.10" departSpeed="11.18" departDelay="0.00" arrival="54.50" arrivalLane="001_002_4_1" arrivalPos="200.00" arrivalSpeed="11.18" duration="37.50" routeLength="419.10" waitingTime="0.00" waitingCount="0" stopTime="0.00" timeLoss="0.00" rerouteNo="1" devices="tripinfo_SX_59" vType="car8@SX_59" speedFactor="1.07" vaporized=""/>
    <tripinfo id="RX_70" depart="20.00" departLane="002_001_4_0" departPos="7.10" departSpeed="11.18" departDelay="0.00" arrival="56.00" arrivalLane="003_001_1_0" arrivalPos="200.00" arrivalSpeed="11.18" duration="36.00" routeLength="401.93" waitingTime="0.00" waitingCount="0" stopTime="0.00" timeLoss="-2.21" rerouteNo="1" devices="tripinfo_RX_70" vType="car7@RX_70" speedFactor="1.88" vaporized=""/>
    <tripinfo id="RX_71" depart="21.00" departLane="001_001_2_0" departPos="7.10" departSpeed="11.18" departDelay="0.00" arrival="57.00" arrivalLane="000_001_3_0" arrivalPos="200.00" arrivalSpeed="11.18" duration="36.00" routeLength="401.93" waitingTime="0.00" waitingCount="0" stopTime="0.00" timeLoss="-2.21" rerouteNo="1" devices="tripinfo_RX_71" vType="car7@RX_71" speedFactor="1.73" vaporized=""/>
    <tripinfo id="LX_57" depart="17.00" departLane="001_001_1_2" departPos="5.10" departSpeed="11.18" departDelay="0.00" arrival="57.30" arrivalLane="001_002_4_2" arrivalPos="200.00" arrivalSpeed="11.18" duration="40.30" routeLength="418.12" waitingTime="1.00" waitingCount="1" stopTime="0.00" timeLoss="-4.74" rerouteNo="1" devices="tripinfo_LX_57" vType="car5@LX_57" speedFactor="1.02" vaporized=""/>
    <tripinfo id="LX_68" depart="20.00" departLane="001_001_4_2" departPos="6.10" departSpeed="11.18" departDelay="0.00" arrival="57.90" arrivalLane="000_001_3_2" arrivalPos="200.00" arrivalSpeed="11.18" duration="37.90" routeLength="417.11" waitingTime="0.00" waitingCount="0" stopTime="0.00" timeLoss="-2.37" rerouteNo="1" devices="tripinfo_LX_68" vType="car6@LX_68" speedFactor="1.38" vaporized=""/>
    <tripinfo id="RX_77" depart="22.50" departLane="001_001_2_0" departPos="9.10" departSpeed="11.18" departDelay="0.50" arrival="58.30" arrivalLane="000_001_3_0" arrivalPos="200.00" arrivalSpeed="11.18" duration="35.80" routeLength="399.93" waitingTime="0.00" waitingCount="0" stopTime="0.00" timeLoss="-2.21" rerouteNo="1" devices="tripinfo_RX_77" vType="car9@RX_77" speedFactor="1.99" vaporized=""/>
    <tripinfo id="SX_66" depart="19.00" departLane="002_001_2_1" departPos="9.10" departSpeed="11.18" departDelay="0.00" arrival="58.70" arrivalLane="002_000_2_1" arrivalPos="200.00" arrivalSpeed="11.18" duration="39.70" routeLength="418.10" waitingTime="0.00" waitingCount="0" stopTime="0.00" timeLoss="-0.25" rerouteNo="1" devices="tripinfo_SX_66" vType="car9@SX_66" speedFactor="1.97" vaporized=""/>
    <tripinfo id="SX_63" depart="18.10" departLane="001_001_4_1" departPos="5.10" departSpeed="11.18" departDelay="0.10" arrival="58.90" arrivalLane="001_002_4_1" arrivalPos="200.00" arrivalSpeed="11.18" duration="40.80" routeLength="422.10" waitingTime="0.00" waitingCount="0" stopTime="0.00" timeLoss="-0.14" rerouteNo="1" devices="tripinfo_SX_63" vType="car5@SX_63" speedFactor="1.91" vaporized=""/>
    <tripinfo id="LX_72" depart="21.50" departLane="001_001_4_2" departPos="9.10" departSpeed="11.18" departDelay="0.50" arrival="59.00" arrivalLane="000_001_3_2" arrivalPos="200.00" arrivalSpeed="11.18" duration="37.50" routeLength="414.11" waitingTime="0.00" waitingCount="0" stopTime="0.00" timeLoss="-2.56" rerouteNo="1" devices="tripinfo_LX_72" vType="car9@LX_72" speedFactor="1.14" vaporized=""/>
    <tripinfo id="RX_83" depart="24.00" departLane="001_001_2_0" departPos="9.10" departSpeed="11.18" departDelay="0.00" arrival="59.80" arrivalLane="000_001_3_0" arrivalPos="200.00" arrivalSpeed="11.18" duration="35.80" routeLength="399.93" waitingTime="0.00" waitingCount="0" stopTime="0.00" timeLoss="-2.21" rerouteNo="1" devices="tripinfo_RX_83" vType="car9@RX_83" speedFactor="1.71" vaporized=""/>
    <tripinfo id="RX_86" depart="24.00" departLane="002_001_4_0" departPos="8.10" departSpeed="11.18" departDelay="0.00" arrival="59.90" arrivalLane="003_001_1_0" arrivalPos="200.00" arrivalSpeed="11.18" duration="35.90" routeLength="400.93" waitingTime="0.00" waitingCount="0" stopTime="0.00" timeLoss="-2.42" rerouteNo="1" devices="tripinfo_RX_86" vType="car8@RX_86" speedFactor="1.23" vaporized=""/>
    <tripinfo id="SX_75" depart="21.00" departLane="002_001_4_1" departPos="8.10" departSpeed="11.18" departDelay="0.00" arrival="60.60" arrivalLane="002_002_4_2" arrivalPos="200.00" arrivalSpeed="11.18" duration="39.60" routeLength="419.10" waitingTime="0.00" waitingCount="0" stopTime="0.00" timeLoss="-0.10" rerouteNo="1" devices="tripinfo_SX_75" vType="car8@SX_75" speedFactor="1.00" vaporized=""/>
    <tripinfo id="RX_89" depart="25.00" departLane="002_001_3_0" departPos="8.10" departSpeed="11.18" departDelay="0.00" arrival="60.90" arrivalLane="002_002_4_0" arrivalPos="200.00" arrivalSpeed="11.18" duration="35.90" routeLength="400.93" waitingTime="0.00" waitingCount="0" stopTime="0.00" timeLoss="-2.57" rerouteNo="1" devices="tripinfo_RX_89" vType="car8@RX_89" speedFactor="1.08" vaporized=""/>
    <tripinfo id="SX_73" depart="21.00" departLane="002_001_2_1" departPos="7.10" departSpeed="11.18" departDelay="0.00" arrival="61.20" arrivalLane="002_000_2_2" arrivalPos="200.00" arrivalSpeed="11.18" duration="40.20" routeLength="420.10" waitingTime="1.70" waitingCount="1" stopTime="0.00" timeLoss="-4295.58" rerouteNo="1" devices="tripinfo_SX_73" vType="car7@SX_73" speedFactor="1.34" vaporized=""/>
    <tripinfo id="RX_91" depart="26.00" departLane="001_001_2_0" departPos="7.10" departSpeed="11.18" departDelay="0.00" arrival="62.00" arrivalLane="000_001_3_0" arrivalPos="200.00" arrivalSpeed="11.18" duration="36.00" routeLength="401.93" waitingTime="0.00" waitingCount="0" stopTime="0.00" timeLoss="-2.21" rerouteNo="1" devices="tripinfo_RX_91" vType="car7@RX_91" speedFactor="1.68" vaporized=""/>
    <tripinfo id="LX_84" depart="24.00" departLane="001_001_4_2" departPos="6.10" departSpeed="11.18" departDelay="0.00" arrival="62.20" arrivalLane="000_001_3_2" arrivalPos="200.00" arrivalSpeed="11.18" duration="38.20" routeLength="417.11" waitingTime="0.00" waitingCount="0" stopTime="0.00" timeLoss="-4182.47" rerouteNo="1" devices="tripinfo_LX_84" vType="car6@LX_84" speedFactor="1.00" vaporized=""/>
    <tripinfo id="SS_0" depart="0.00" departLane="001_001_1_1" departPos="8.10" departSpeed="11.18" departDelay="0.00" arrival="62.90" arrivalLane="003_001_1_2" arrivalPos="200.00" arrivalSpeed="11.18" duration="62.90" routeLength="646.30" waitingTime="0.00" waitingCount="0" stopTime="0.00" timeLoss="-1.57" rerouteNo="2" devices="tripinfo_SS_0" vType="car8@SS_0" speedFactor="1.60" vaporized=""/>
    <tripinfo id="LR_11" depart="3.00" departLane="001_001_2_2" departPos="8.10" departSpeed="11.18" departDelay="0.00" arrival="63.50" arrivalLane="002_000_2_0" arrivalPos="200.00" arrivalSpeed="11.18" duration="60.50" routeLength="624.14" waitingTime="3.70" waitingCount="1" stopTime="0.00" timeLoss="1.96" rerouteNo="2" devices="tripinfo_LR_11" vType="car8@LR_11" speedFactor="1.83" vaporized=""/>
    <tripinfo id="RS_18" depart="4.00" departLane="002_001_2_0" departPos="8.10" departSpeed="11.18" departDelay="0.00" arrival="63.60" arrivalLane="000_001_3_1" arrivalPos="200.00" arrivalSpeed="11.18" duration="59.60" routeLength="628.13" waitingTime="0.00" waitingCount="0" stopTime="0.00" timeLoss="-0.67" rerouteNo="2" devices="tripinfo_RS_18" vType="car8@RS_18" speedFactor="1.26" vaporized=""/>
    <tripinfo id="RL_12" depart="3.00" departLane="001_001_4_0" departPos="9.10" departSpeed="11.18" departDelay="0.00" arrival="64.50" arrivalLane="002_002_4_0" arrivalPos="200.00" arrivalSpeed="11.18" duration="61.50" routeLength="632.42" waitingTime="3.90" waitingCount="1" stopTime="0.00" timeLoss="-4740.05" rerouteNo="2" devices="tripinfo_RL_12" vType="car9@RL_12" speedFactor="1.30" vaporized=""/>
    <tripinfo id="SR_15" depart="4.00" departLane="001_001_1_1" departPos="7.10" departSpeed="11.18" departDelay="0.00" arrival="64.60" arrivalLane="002_000_2_0" arrivalPos="200.00" arrivalSpeed="11.18" duration="60.60" routeLength="629.13" waitingTime="2.90" waitingCount="1" stopTime="0.00" timeLoss="1.53" rerouteNo="2" devices="tripinfo_SR_15" vType="car7@SR_15" speedFactor="1.10" vaporized=""/>
    <tripinfo id="LL_7" depart="1.00" departLane="002_001_4_2" departPos="7.10" departSpeed="11.18" departDelay="0.00" arrival="64.70" arrivalLane="001_000_2_2" arrivalPos="200.00" arrivalSpeed="11.18" duration="63.70" routeLength="639.33" waitingTime="3.90" waitingCount="1" stopTime="0.00" timeLoss="-3946.23" rerouteNo="2" devices="tripinfo_LL_7" vType="car7@LL_7" speedFactor="1.91" vaporized=""/>
    <tripinfo id="SX_79" depart="22.00" departLane="002_001_2_1" departPos="8.10" departSpeed="11.18" departDelay="0.00" arrival="64.70" arrivalLane="002_000_2_1" arrivalPos="200.00" arrivalSpeed="11.18" duration="42.70" routeLength="419.10" waitingTime="0.00" waitingCount="0" stopTime="0.00" timeLoss="-0.43" rerouteNo="1" devices="tripinfo_SX_79" vType="car8@SX_79" speedFactor="1.96" vaporized=""/>
    <tripinfo id="RX_100" depart="29.00" departLane="001_001_1_0" departPos="7.10" departSpeed="11.18" departDelay="0.00" arrival="65.00" arrivalLane="001_000_2_0" arrivalPos="200.00" arrivalSpeed="11.18" duration="36.00" routeLength="401.93" waitingTime="0.00" waitingCount="0" stopTime="0.00" timeLoss="-2.49" rerouteNo="1" devices="tripinfo_RX_100" vType="car7@RX_100" speedFactor="1.16" vaporized=""/>
    <tripinfo id="SX_78" depart="22.00" departLane="001_001_4_1" departPos="8.10" departSpeed="11.18" departDelay="0.00" arrival="65.80" arrivalLane="001_002_4_0" arrivalPos="200.00" arrivalSpeed="11.18" duration="43.80" routeLength="419.10" waitingTime="5.40" waitingCount="1" stopTime="0.00" timeLoss="-4405.61" rerouteNo="1" devices="tripinfo_SX_78" vType="car8@SX_78" speedFactor="1.09" vaporized=""/>
    <tripinfo id="RX_108" depart="30.00" departLane="002_001_4_0" departPos="9.10" departSpeed="11.18" departDelay="0.00" arrival="65.80" arrivalLane="003_001_1_0" arrivalPos="200.00" arrivalSpeed="11.18" duration="35.80" routeLength="399.93" waitingTime="0.00" waitingCount="0" stopTime="0.00" timeLoss="-2.21" rerouteNo="1" devices="tripinfo_RX_108" vType="car9@RX_108" speedFactor="1.78" vaporized=""/>
    <tripinfo id="LX_85" depart="24.00" departLane="002_001_2_2" departPos="7.10" departSpeed="11.18" departDelay="0.00" arrival="65.90" arrivalLane="003_001_1_2" arrivalPos="200.00" arrivalSpeed="11.18" duration="41.90" routeLength="416.11" waitingTime="3.10" waitingCount="1" stopTime="0.00" timeLoss="-4891.12" rerouteNo="1" devices="tripinfo_LX_85" vType="car7@LX_85" speedFactor="1.31" vaporized=""/>
    <tripinfo id="RX_104" depart="30.20" departLane="001_001_1_0" departPos="6.10" departSpeed="11.18" departDelay="0.20" arrival="66.30" arrivalLane="001_000_2_0" arrivalPos="200.00" arrivalSpeed="11.18" duration="36.10" routeLength="402.93" waitingTime="0.00" waitingCount="0" stopTime="0.00" timeLoss="-2.20" rerouteNo="1" devices="tripinfo_RX_104" vType="car6@RX_104" speedFactor="1.71" vaporized=""/>
    <tripinfo id="SR_8" depart="2.00" departLane="001_001_1_1" departPos="6.10" departSpeed="11.18" departDelay="0.00" arrival="66.60" arrivalLane="002_000_2_1" arrivalPos="200.00" arrivalSpeed="11.18" duration="64.60" routeLength="635.29" waitingTime="0.00" waitingCount="0" stopTime="0.00" timeLoss="-3.16" rerouteNo="2" devices="tripinfo_SR_8" vType="car6@SR_8" speedFactor="1.26" vaporized=""/>
    <tripinfo id="RX_110" depart="31.00" departLane="001_001_2_0" departPos="9.10" departSpeed="11.18" departDelay="0.00" arrival="66.80" arrivalLane="000_001_3_0" arrivalPos="200.00" arrivalSpeed="11.18" duration="35.80" routeLength="399.93" waitingTime="0.00" waitingCount="0" stopTime="0.00" timeLoss="-2.22" rerouteNo="1" devices="tripinfo_RX_110" vType="car9@RX_110" speedFactor="1.52" vaporized=""/>
    <tripinfo id="LX_88" depart="25.50" departLane="001_001_4_2" departPos="9.10" departSpeed="11.18" departDelay="0.50" arrival="67.20" arrivalLane="000_001_3_2" arrivalPos="200.00" arrivalSpeed="11.18" duration="41.70" routeLength="414.11" waitingTime="3.10" waitingCount="1" stopTime="0.00" timeLoss="-4611.23" rerouteNo="1" devices="tripinfo_LX_88" vType="car9@LX_88" speedFactor="1.32" vaporized=""/>
    <tripinfo id="RX_109" depart="31.70" departLane="001_001_1_0" departPos="9.10" departSpeed="11.18" departDelay="0.70" arrival="67.50" arrivalLane="001_000_2_0" arrivalPos="200.00" arrivalSpeed="11.18" duration="35.80" routeLength="399.93" waitingTime="0.00" waitingCount="0" stopTime="0.00" timeLoss="-2.30" rerouteNo="1" devices="tripinfo_RX_109" vType="car9@RX_109" speedFactor="1.40" vaporized=""/>
    <tripinfo id="LL_21" depart="5.00" departLane="001_001_2_2" departPos="7.10" departSpeed="11.18" departDelay="0.00" arrival="68.20" arrivalLane="002_002_4_2" arrivalPos="200.00" arrivalSpeed="11.18" duration="63.20" routeLength="639.33" waitingTime="0.00" waitingCount="0" stopTime="0.00" timeLoss="-26.46" rerouteNo="2" devices="tripinfo_LL_21" vType="car7@LL_21" speedFactor="1.20" vaporized=""/>