<?xml version="1.0" encoding="UTF-8"?>

<!-- generated on 2022-05-31 14:42:52 by Eclipse SUMO sumo Version 1.9.2
<configuration xmlns:xsi="http://www.w3.org/2001/XMLSchema-instance" xsi:noNamespaceSchemaLocation="http://sumo.dlr.de/xsd/sumoConfiguration.xsd">

    <input>
        <net-file value="data/lane3.net.xml"/>
        <route-files value="data/icacc+.rou.xml"/>
        <additional-files value="data/icacc+.det.xml"/>
    </input>

    <output>
        <tripinfo-output value="tripinfo.xml"/>
    </output>

    <time>
        <begin value="0"/>
        <step-length value="0.05"/>
    </time>

    <processing>
        <collision.mingap-factor value="0"/>
        <time-to-teleport value="-1"/>
        <lanechange.duration value="0.5"/>
    </processing>

    <report>
        <verbose value="true"/>
        <no-step-log value="true"/>
    </report>

    <traci_server>
        <remote-port value="49528"/>
    </traci_server>

    <gui_only>
        <start value="true"/>
        <tracker-interval value="0.05"/>
    </gui_only>

</configuration>
-->

<tripinfos xmlns:xsi="http://www.w3.org/2001/XMLSchema-instance" xsi:noNamespaceSchemaLocation="http://sumo.dlr.de/xsd/tripinfo_file.xsd">
    <tripinfo id="R_0" depart="0.00" departLane="1_0" departPos="8.10" departSpeed="11.18" departDelay="0.00" arrival="35.60" arrivalLane="-4_0" arrivalPos="200.00" arrivalSpeed="11.18" duration="35.60" routeLength="397.06" waitingTime="0.00" waitingCount="0" stopTime="0.00" timeLoss="-2.55" rerouteNo="0" devices="tripinfo_R_0" vType="car8@R_0" speedFactor="1.06" vaporized=""/>
    <tripinfo id="R_2" depart="1.15" departLane="1_0" departPos="6.10" departSpeed="11.18" departDelay="0.15" arrival="37.95" arrivalLane="-4_2" arrivalPos="200.00" arrivalSpeed="11.18" duration="36.80" routeLength="409.38" waitingTime="0.00" waitingCount="0" stopTime="0.00" timeLoss="-2.41" rerouteNo="0" devices="tripinfo_R_2" vType="car6@R_2" speedFactor="1.01" vaporized=""/>
    <tripinfo id="L_5" depart="4.00" departLane="1_2" departPos="7.10" departSpeed="11.18" departDelay="0.00" arrival="41.15" arrivalLane="-2_2" arrivalPos="200.00" arrivalSpeed="11.18" duration="37.15" routeLength="412.45" waitingTime="0.00" waitingCount="0" stopTime="0.00" timeLoss="-2.70" rerouteNo="0" devices="tripinfo_L_5" vType="car7@L_5" speedFactor="0.83" vaporized=""/>
    <tripinfo id="R_4" depart="2.00" departLane="4_1" departPos="7.10" departSpeed="11.18" departDelay="0.00" arrival="41.80" arrivalLane="-3_0" arrivalPos="200.00" arrivalSpeed="11.18" duration="39.80" routeLength="398.06" waitingTime="3.20" waitingCount="1" stopTime="0.00" timeLoss="-4845.99" rerouteNo="0" devices="tripinfo_R_4" vType="car7@R_4" speedFactor="1.03" vaporized=""/>
    <tripinfo id="S_1" depart="0.00" departLane="3_0" departPos="8.10" departSpeed="11.18" departDelay="0.00" arrival="43.10" arrivalLane="-1_2" arrivalPos="200.00" arrivalSpeed="11.18" duration="43.10" routeLength="414.30" waitingTime="5.10" waitingCount="1" stopTime="0.00" timeLoss="-4960.30" rerouteNo="0" devices="tripinfo_S_1" vType="car8@S_1" speedFactor="0.94" vaporized=""/>
    <tripinfo id="R_3" depart="2.00" departLane="2_0" departPos="7.10" departSpeed="11.18" departDelay="0.00" arrival="43.60" arrivalLane="-1_0" arrivalPos="200.00" arrivalSpeed="11.18" duration="41.60" routeLength="398.06" waitingTime="5.00" waitingCount="1" stopTime="0.00" timeLoss="-4845.94" rerouteNo="0" devices="tripinfo_R_3" vType="car7@R_3" speedFactor="1.08" vaporized=""/>
    <tripinfo id="L_14" depart="8.00" departLane="3_0" departPos="8.10" departSpeed="11.18" departDelay="0.00" arrival="45.05" arrivalLane="-4_2" arrivalPos="200.00" arrivalSpeed="11.18" duration="37.05" routeLength="411.45" waitingTime="0.00" waitingCount="0" stopTime="0.00" timeLoss="-2.29" rerouteNo="0" devices="tripinfo_L_14" vType="car8@L_14" speedFactor="0.99" vaporized=""/>
    <tripinfo id="R_6" depart="4.00" departLane="4_1" departPos="7.10" departSpeed="11.18" departDelay="0.00" arrival="45.40" arrivalLane="-3_0" arrivalPos="200.00" arrivalSpeed="11.18" duration="41.40" routeLength="398.06" waitingTime="3.55" waitingCount="2" stopTime="0.00" timeLoss="-4953.03" rerouteNo="0" devices="tripinfo_R_6" vType="car7@R_6" speedFactor="1.05" vaporized=""/>
    <tripinfo id="R_10" depart="6.25" departLane="4_1" departPos="7.10" departSpeed="11.18" departDelay="0.25" arrival="46.35" arrivalLane="-3_0" arrivalPos="200.00" arrivalSpeed="11.18" duration="40.10" routeLength="398.06" waitingTime="2.25" waitingCount="2" stopTime="0.00" timeLoss="1.81" rerouteNo="0" devices="tripinfo_R_10" vType="car7@R_10" speedFactor="1.09" vaporized=""/>
    <tripinfo id="S_9" depart="5.00" departLane="4_2" departPos="6.10" departSpeed="11.18" departDelay="0.00" arrival="46.85" arrivalLane="-2_1" arrivalPos="200.00" arrivalSpeed="11.18" duration="41.85" routeLength="416.30" waitingTime="3.70" waitingCount="1" stopTime="0.00" timeLoss="-4724.08" rerouteNo="0" devices="tripinfo_S_9" vType="car6@S_9" speedFactor="0.86" vaporized=""/>
    <tripinfo id="L_8" depart="5.00" departLane="2_1" departPos="9.10" departSpeed="11.18" departDelay="0.00" arrival="48.50" arrivalLane="-3_2" arrivalPos="200.00" arrivalSpeed="11.18" duration="43.50" routeLength="410.45" waitingTime="5.65" waitingCount="1" stopTime="0.00" timeLoss="-4526.27" rerouteNo="0" devices="tripinfo_L_8" vType="car9@L_8" speedFactor="0.94" vaporized=""/>
    <tripinfo id="R_19" depart="10.00" departLane="3_0" departPos="7.10" departSpeed="11.18" departDelay="0.00" arrival="48.60" arrivalLane="-2_0" arrivalPos="200.00" arrivalSpeed="11.18" duration="38.60" routeLength="398.06" waitingTime="2.00" waitingCount="1" stopTime="0.00" timeLoss="-4845.87" rerouteNo="0" devices="tripinfo_R_19" vType="car7@R_19" speedFactor="1.16" vaporized=""/>
    <tripinfo id="R_13" depart="8.15" departLane="2_2" departPos="6.10" departSpeed="11.18" departDelay="0.15" arrival="49.45" arrivalLane="-1_0" arrivalPos="200.00" arrivalSpeed="11.18" duration="41.30" routeLength="399.06" waitingTime="4.00" waitingCount="1" stopTime="0.00" timeLoss="-4912.66" rerouteNo="0" devices="tripinfo_R_13" vType="car6@R_13" speedFactor="1.12" vaporized=""/>
    <tripinfo id="R_12" depart="7.00" departLane="4_2" departPos="8.10" departSpeed="11.18" departDelay="0.00" arrival="49.50" arrivalLane="-3_0" arrivalPos="200.00" arrivalSpeed="11.18" duration="42.50" routeLength="397.06" waitingTime="2.65" waitingCount="2" stopTime="0.00" timeLoss="-4880.83" rerouteNo="0" devices="tripinfo_R_12" vType="car8@R_12" speedFactor="1.05" vaporized=""/>
    <tripinfo id="R_22" depart="14.00" departLane="1_0" departPos="8.10" departSpeed="11.18" departDelay="0.00" arrival="49.60" arrivalLane="-4_0" arrivalPos="200.00" arrivalSpeed="11.18" duration="35.60" routeLength="397.06" waitingTime="0.00" waitingCount="0" stopTime="0.00" timeLoss="-2.63" rerouteNo="0" devices="tripinfo_R_22" vType="car8@R_22" speedFactor="0.98" vaporized=""/>
    <tripinfo id="R_21" depart="12.00" departLane="2_1" departPos="7.10" departSpeed="11.18" departDelay="0.00" arrival="50.35" arrivalLane="-1_0" arrivalPos="200.00" arrivalSpeed="11.18" duration="38.35" routeLength="398.06" waitingTime="1.40" waitingCount="1" stopTime="0.00" timeLoss="0.00" rerouteNo="0" devices="tripinfo_R_21" vType="car7@R_21" speedFactor="1.01" vaporized=""/>
    <tripinfo id="L_7" depart="5.25" departLane="1_2" departPos="7.10" departSpeed="11.18" departDelay="0.25" arrival="50.60" arrivalLane="-2_0" arrivalPos="200.00" arrivalSpeed="11.18" duration="45.35" routeLength="422.16" waitingTime="6.35" waitingCount="1" stopTime="0.00" timeLoss="-4845.50" rerouteNo="0" devices="tripinfo_L_7" vType="car7@L_7" speedFactor="0.89" vaporized=""/>
    <tripinfo id="R_23" depart="14.00" departLane="2_1" departPos="8.10" departSpeed="11.18" departDelay="0.00" arrival="51.35" arrivalLane="-1_0" arrivalPos="200.00" arrivalSpeed="11.18" duration="37.35" routeLength="397.06" waitingTime="0.30" waitingCount="1" stopTime="0.00" timeLoss="-1.10" rerouteNo="0" devices="tripinfo_R_23" vType="car8@R_23" speedFactor="0.89" vaporized=""/>
    <tripinfo id="L_11" depart="7.00" departLane="2_0" departPos="8.10" departSpeed="11.18" departDelay="0.00" arrival="51.65" arrivalLane="-3_2" arrivalPos="200.00" arrivalSpeed="11.18" duration="44.65" routeLength="411.45" waitingTime="5.45" waitingCount="2" stopTime="0.00" timeLoss="-4836.59" rerouteNo="0" devices="tripinfo_L_11" vType="car8@L_11" speedFactor="1.03" vaporized=""/>
    <tripinfo id="S_17" depart="9.00" departLane="4_0" departPos="6.10" departSpeed="11.18" departDelay="0.00" arrival="53.55" arrivalLane="-2_1" arrivalPos="200.00" arrivalSpeed="11.18" duration="44.55" routeLength="416.30" waitingTime="0.00" waitingCount="0" stopTime="0.00" timeLoss="-0.31" rerouteNo="0" devices="tripinfo_S_17" vType="car6@S_17" speedFactor="0.94" vaporized=""/>
    <tripinfo id="S_15" depart="11.80" departLane="4_1" departPos="8.10" departSpeed="11.18" departDelay="3.80" arrival="53.90" arrivalLane="-2_2" arrivalPos="200.00" arrivalSpeed="11.18" duration="42.10" routeLength="414.30" waitingTime="0.00" waitingCount="0" stopTime="0.00" timeLoss="-36.93" rerouteNo="0" devices="tripinfo_S_15" vType="car8@S_15" speedFactor="0.93" vaporized=""/>
    <tripinfo id="R_28" depart="19.00" departLane="1_1" departPos="6.10" departSpeed="11.18" departDelay="0.00" arrival="54.80" arrivalLane="-4_0" arrivalPos="200.00" arrivalSpeed="11.18" duration="35.80" routeLength="399.06" waitingTime="0.00" waitingCount="0" stopTime="0.00" timeLoss="-2.49" rerouteNo="0" devices="tripinfo_R_28" vType="car6@R_28" speedFactor="1.13" vaporized=""/>
    <tripinfo id="L_24" depart="14.00" departLane="4_2" departPos="5.10" departSpeed="11.18" departDelay="0.00" arrival="55.50" arrivalLane="-1_2" arrivalPos="200.00" arrivalSpeed="11.18" duration="41.50" routeLength="414.45" waitingTime="0.00" waitingCount="0" stopTime="0.00" timeLoss="-0.55" rerouteNo="0" devices="tripinfo_L_24" vType="car5@L_24" speedFactor="0.83" vaporized=""/>
    <tripinfo id="L_16" depart="9.00" departLane="2_2" departPos="6.10" departSpeed="11.18" departDelay="0.00" arrival="56.25" arrivalLane="-3_2" arrivalPos="200.00" arrivalSpeed="11.18" duration="47.25" routeLength="413.45" waitingTime="6.90" waitingCount="3" stopTime="0.00" timeLoss="-4809.06" rerouteNo="0" devices="tripinfo_L_16" vType="car6@L_16" speedFactor="0.88" vaporized=""/>
    <tripinfo id="L_25" depart="16.00" departLane="4_0" departPos="5.10" departSpeed="11.18" departDelay="0.00" arrival="57.30" arrivalLane="-1_2" arrivalPos="200.00" arrivalSpeed="11.18" duration="41.30" routeLength="414.45" waitingTime="0.00" waitingCount="0" stopTime="0.00" timeLoss="-7.97" rerouteNo="0" devices="tripinfo_L_25" vType="car5@L_25" speedFactor="0.87" vaporized=""/>
    <tripinfo id="S_29" depart="19.00" departLane="3_1" departPos="8.10" departSpeed="11.18" departDelay="0.00" arrival="57.50" arrivalLane="-1_1" arrivalPos="200.00" arrivalSpeed="11.18" duration="38.50" routeLength="414.30" waitingTime="0.00" waitingCount="0" stopTime="0.00" timeLoss="-0.09" rerouteNo="0" devices="tripinfo_S_29" vType="car8@S_29" speedFactor="0.93" vaporized=""/>
    <tripinfo id="S_35" depart="21.00" departLane="4_0" departPos="9.10" departSpeed="11.18" departDelay="0.00" arrival="58.05" arrivalLane="-2_1" arrivalPos="200.00" arrivalSpeed="11.18" duration="37.05" routeLength="413.30" waitingTime="0.00" waitingCount="0" stopTime="0.00" timeLoss="0.00" rerouteNo="0" devices="tripinfo_S_35" vType="car9@S_35" speedFactor="1.02" vaporized=""/>
    <tripinfo id="S_26" depart="17.00" departLane="1_0" departPos="6.10" departSpeed="11.18" departDelay="0.00" arrival="59.40" arrivalLane="-3_1" arrivalPos="200.00" arrivalSpeed="11.18" duration="42.40" routeLength="416.30" waitingTime="4.25" waitingCount="1" stopTime="0.00" timeLoss="-4724.08" rerouteNo="0" devices="tripinfo_S_26" vType="car6@S_26" speedFactor="0.92" vaporized=""/>
    <tripinfo id="R_31" depart="20.00" departLane="1_1" departPos="6.10" departSpeed="11.18" departDelay="0.00" arrival="60.60" arrivalLane="-4_0" arrivalPos="200.00" arrivalSpeed="11.18" duration="40.60" routeLength="399.06" waitingTime="3.60" waitingCount="1" stopTime="0.00" timeLoss="-4957.04" rerouteNo="0" devices="tripinfo_R_31" vType="car6@R_31" speedFactor="1.15" vaporized=""/>
    <tripinfo id="L_18" depart="10.00" departLane="1_2" departPos="9.10" departSpeed="11.18" departDelay="0.00" arrival="61.20" arrivalLane="-2_2" arrivalPos="200.00" arrivalSpeed="11.18" duration="51.20" routeLength="410.45" waitingTime="13.35" waitingCount="1" stopTime="0.00" timeLoss="-4526.27" rerouteNo="0" devices="tripinfo_L_18" vType="car9@L_18" speedFactor="0.94" vaporized=""/>
    <tripinfo id="S_20" depart="11.05" departLane="1_2" departPos="5.10" departSpeed="11.18" departDelay="0.05" arrival="62.40" arrivalLane="-3_2" arrivalPos="200.00" arrivalSpeed="11.18" duration="51.35" routeLength="417.30" waitingTime="13.00" waitingCount="1" stopTime="0.00" timeLoss="13.81" rerouteNo="0" devices="tripinfo_S_20" vType="car5@S_20" speedFactor="1.02" vaporized=""/>
    <tripinfo id="L_33" depart="20.15" departLane="4_0" departPos="6.10" departSpeed="11.18" departDelay="0.15" arrival="63.90" arrivalLane="-1_2" arrivalPos="200.00" arrivalSpeed="11.18" duration="43.75" routeLength="413.45" waitingTime="4.70" waitingCount="1" stopTime="0.00" timeLoss="-4959.96" rerouteNo="0" devices="tripinfo_L_33" vType="car6@L_33" speedFactor="1.17" vaporized=""/>
    <tripinfo id="L_34" depart="21.00" departLane="2_1" departPos="5.10" departSpeed="11.18" departDelay="0.00" arrival="63.90" arrivalLane="-3_2" arrivalPos="200.00" arrivalSpeed="11.18" duration="42.90" routeLength="414.45" waitingTime="4.70" waitingCount="1" stopTime="0.00" timeLoss="-4611.57" rerouteNo="0" devices="tripinfo_L_34" vType="car5@L_34" speedFactor="0.99" vaporized=""/>
    <tripinfo id="S_39" depart="26.00" departLane="2_1" departPos="6.10" departSpeed="11.18" departDelay="0.00" arrival="64.70" arrivalLane="-4_2" arrivalPos="200.00" arrivalSpeed="11.18" duration="38.70" routeLength="416.30" waitingTime="0.00" waitingCount="0" stopTime="0.00" timeLoss="-0.47" rerouteNo="0" devices="tripinfo_S_39" vType="car6@S_39" speedFactor="0.90" vaporized=""/>
    <tripinfo id="S_40" depart="26.00" departLane="3_2" departPos="6.10" departSpeed="11.18" departDelay="0.00" arrival="65.10" arrivalLane="-1_0" arrivalPos="200.00" arrivalSpeed="11.18" duration="39.10" routeLength="416.30" waitingTime="0.00" waitingCount="0" stopTime="0.00" timeLoss="-0.12" rerouteNo="0" devices="tripinfo_S_40" vType="car6@S_40" speedFactor="1.03" vaporized=""/>
    <tripinfo id="S_38" depart="26.00" departLane="1_1" departPos="8.10" departSpeed="11.18" departDelay="0.00" arrival="66.55" arrivalLane="-3_1" arrivalPos="200.00" arrivalSpeed="11.18" duration="40.55" routeLength="414.30" waitingTime="0.00" waitingCount="0" stopTime="0.00" timeLoss="-0.43" rerouteNo="0" devices="tripinfo_S_38" vType="car8@S_38" speedFactor="1.10" vaporized=""/>
    <tripinfo id="S_41" depart="27.00" departLane="1_0" departPos="6.10" departSpeed="11.18" departDelay="0.00" arrival="66.80" arrivalLane="-3_0" arrivalPos="200.00" arrivalSpeed="11.18" duration="39.80" routeLength="416.30" waitingTime="0.00" waitingCount="0" stopTime="0.00" timeLoss="-0.21" rerouteNo="0" devices="tripinfo_S_41" vType="car6@S_41" speedFactor="0.96" vaporized=""/>
    <tripinfo id="L_43" depart="29.00" departLane="2_1" departPos="8.10" departSpeed="11.18" departDelay="0.00" arrival="68.05" arrivalLane="-3_2" arrivalPos="200.00" arrivalSpeed="11.18" duration="39.05" routeLength="411.45" waitingTime="1.15" waitingCount="1" stopTime="0.00" timeLoss="-4496.90" rerouteNo="0" devices="tripinfo_L_43" vType="car8@L_43" speedFactor="1.04" vaporized=""/>
    <tripinfo id="S_37" depart="24.00" departLane="2_2" departPos="8.10" departSpeed="11.18" departDelay="0.00" arrival="68.85" arrivalLane="-4_1" arrivalPos="200.00" arrivalSpeed="11.18" duration="44.85" routeLength="414.30" waitingTime="6.85" waitingCount="1" stopTime="0.00" timeLoss="-4960.30" rerouteNo="0" devices="tripinfo_S_37" vType="car8@S_37" speedFactor="1.18" vaporized=""/>
    <tripinfo id="S_45" depart="30.00" departLane="3_2" departPos="8.10" departSpeed="11.18" departDelay="0.00" arrival="69.10" arrivalLane="-1_0" arrivalPos="200.00" arrivalSpeed="11.18" duration="39.10" routeLength="414.30" waitingTime="0.00" waitingCount="0" stopTime="0.00" timeLoss="-0.17" rerouteNo="0" devices="tripinfo_S_45" vType="car8@S_45" speedFactor="1.09" vaporized=""/>
    <tripinfo id="S_49" depart="32.00" departLane="4_1" departPos="5.10" departSpeed="11.18" departDelay="0.00" arrival="70.00" arrivalLane="-2_1" arrivalPos="200.00" arrivalSpeed="11.18" duration="38.00" routeLength="417.30" waitingTime="0.00" waitingCount="0" stopTime="0.00" timeLoss="-0.01" rerouteNo="0" devices="tripinfo_S_49" vType="car5@S_49" speedFactor="0.85" vaporized=""/>
    <tripinfo id="S_44" depart="30.40" departLane="2_2" departPos="9.10" departSpeed="11.18" departDelay="0.40" arrival="72.95" arrivalLane="-4_1" arrivalPos="200.00" arrivalSpeed="11.18" duration="42.55" routeLength="413.30" waitingTime="3.45" waitingCount="2" stopTime="0.00" timeLoss="-4853.13" rerouteNo="0" devices="tripinfo_S_44" vType="car9@S_44" speedFactor="1.04" vaporized=""/>
    <tripinfo id="L_27" depart="18.00" departLane="3_0" departPos="5.10" departSpeed="11.18" departDelay="0.00" arrival="73.65" arrivalLane="-4_2" arrivalPos="200.00" arrivalSpeed="11.18" duration="55.65" routeLength="414.45" waitingTime="17.45" waitingCount="1" stopTime="0.00" timeLoss="-4611.67" rerouteNo="0" devices="tripinfo_L_27" vType="car5@L_27" speedFactor="0.95" vaporized=""/>
    <tripinfo id="S_32" depart="20.25" departLane="3_1" departPos="7.10" departSpeed="11.18" departDelay="0.25" arrival="74.50" arrivalLane="-1_2" arrivalPos="200.00" arrivalSpeed="11.18" duration="54.25" routeLength="415.30" waitingTime="15.75" waitingCount="1" stopTime="0.00" timeLoss="17.02" rerouteNo="0" devices="tripinfo_S_32" vType="car7@S_32" speedFactor="1.01" vaporized=""/>
    <tripinfo id="R_42" depart="28.00" departLane="4_0" departPos="5.10" departSpeed="11.18" departDelay="0.00" arrival="74.50" arrivalLane="-3_0" arrivalPos="200.00" arrivalSpeed="11.18" duration="46.50" routeLength="400.06" waitingTime="9.45" waitingCount="1" stopTime="0.00" timeLoss="8.10" rerouteNo="0" devices="tripinfo_R_42" vType="car5@R_42" speedFactor="1.09" vaporized=""/>
    <tripinfo id="R_46" depart="31.00" departLane="2_2" departPos="9.10" departSpeed="11.18" departDelay="0.00" arrival="74.75" arrivalLane="-1_0" arrivalPos="200.00" arrivalSpeed="11.18" duration="43.75" routeLength="396.06" waitingTime="5.20" waitingCount="1" stopTime="0.00" timeLoss="-4604.17" rerouteNo="0" devices="tripinfo_R_46" vType="car9@R_46" speedFactor="1.00" vaporized=""/>
    <tripinfo id="S_30" depart="19.00" departLane="4_1" departPos="8.10" departSpeed="11.18" departDelay="0.00" arrival="75.00" arrivalLane="-2_0" arrivalPos="200.00" arrivalSpeed="11.18" duration="56.00" routeLength="414.30" waitingTime="18.00" waitingCount="1" stopTime="0.00" timeLoss="-4960.31" rerouteNo="0" devices="tripinfo_S_30" vType="car8@S_30" speedFactor="1.18" vaporized=""/>
    <tripinfo id="R_50" depart="33.35" departLane="1_2" departPos="8.10" departSpeed="11.18" departDelay="0.35" arrival="75.30" arrivalLane="-4_0" arrivalPos="200.00" arrivalSpeed="11.18" duration="41.95" routeLength="397.06" waitingTime="5.45" waitingCount="1" stopTime="0.00" timeLoss="-4963.13" rerouteNo="0" devices="tripinfo_R_50" vType="car8@R_50" speedFactor="0.85" vaporized=""/>
    <tripinfo id="S_48" depart="32.00" departLane="1_1" departPos="5.10" departSpeed="11.18" departDelay="0.00" arrival="75.55" arrivalLane="-3_2" arrivalPos="200.00" arrivalSpeed="11.18" duration="43.55" routeLength="417.30" waitingTime="0.00" waitingCount="0" stopTime="0.00" timeLoss="-1.86" rerouteNo="0" devices="tripinfo_S_48" vType="car5@S_48" speedFactor="0.88" vaporized=""/>
    <tripinfo id="R_56" depart="37.00" departLane="2_1" departPos="7.10" departSpeed="11.18" departDelay="0.00" arrival="76.20" arrivalLane="-1_0" arrivalPos="200.00" arrivalSpeed="11.18" duration="39.20" routeLength="398.06" waitingTime="1.95" waitingCount="1" stopTime="0.00" timeLoss="0.31" rerouteNo="0" devices="tripinfo_R_56" vType="car7@R_56" speedFactor="0.90" vaporized=""/>
    <tripinfo id="R_58" depart="39.00" departLane="3_0" departPos="8.10" departSpeed="11.18" departDelay="0.00" arrival="76.40" arrivalLane="-2_0" arrivalPos="200.00" arrivalSpeed="11.18" duration="37.40" routeLength="397.06" waitingTime="0.00" waitingCount="0" stopTime="0.00" timeLoss="-2.71" rerouteNo="0" devices="tripinfo_R_58" vType="car8@R_58" speedFactor="1.02" vaporized=""/>
    <tripinfo id="R_60" depart="41.00" departLane="4_2" departPos="8.10" departSpeed="11.18" departDelay="0.00" arrival="76.60" arrivalLane="-3_0" arrivalPos="200.00" arrivalSpeed="11.18" duration="35.60" routeLength="397.06" waitingTime="0.00" waitingCount="0" stopTime="0.00" timeLoss="-2.53" rerouteNo="0" devices="tripinfo_R_60" vType="car8@R_60" speedFactor="1.08" vaporized=""/>
    <tripinfo id="S_36" depart="23.00" departLane="3_0" departPos="9.10" departSpeed="11.18" departDelay="0.00" arrival="77.45" arrivalLane="-1_2" arrivalPos="200.00" arrivalSpeed="11.18" duration="54.45" routeLength="413.30" waitingTime="15.25" waitingCount="2" stopTime="0.00" timeLoss="-4548.66" rerouteNo="0" devices="tripinfo_S_36" vType="car9@S_36" speedFactor="0.97" vaporized=""/>
    <tripinfo id="S_52" depart="34.00" departLane="3_2" departPos="7.10" departSpeed="11.18" departDelay="0.00" arrival="78.45" arrivalLane="-1_1" arrivalPos="200.00" arrivalSpeed="11.18" duration="44.45" routeLength="415.30" waitingTime="6.35" waitingCount="1" stopTime="0.00" timeLoss="-4843.38" rerouteNo="0" devices="tripinfo_S_52" vType="car7@S_52" speedFactor="1.02" vaporized=""/>
    <tripinfo id="S_51" depart="33.00" departLane="4_0" departPos="8.10" departSpeed="11.18" departDelay="0.00" arrival="79.45" arrivalLane="-2_2" arrivalPos="200.00" arrivalSpeed="11.18" duration="46.45" routeLength="414.30" waitingTime="5.20" waitingCount="1" stopTime="0.00" timeLoss="-4874.08" rerouteNo="0" devices="tripinfo_S_51" vType="car8@S_51" speedFactor="1.17" vaporized=""/>
    <tripinfo id="L_47" depart="31.00" departLane="3_2" departPos="7.10" departSpeed="11.18" departDelay="0.00" arrival="80.15" arrivalLane="-4_2" arrivalPos="200.00" arrivalSpeed="11.18" duration="49.15" routeLength="412.45" waitingTime="9.00" waitingCount="3" stopTime="0.00" timeLoss="-4721.35" rerouteNo="0" devices="tripinfo_L_47" vType="car7@L_47" speedFactor="0.90" vaporized=""/>
    <tripinfo id="S_57" depart="38.00" departLane="2_1" departPos="5.10" departSpeed="11.18" departDelay="0.00" arrival="81.60" arrivalLane="-4_0" arrivalPos="200.00" arrivalSpeed="11.18" duration="43.60" routeLength="417.30" waitingTime="3.25" waitingCount="2" stopTime="0.00" timeLoss="-4793.51" rerouteNo="0" devices="tripinfo_S_57" vType="car5@S_57" speedFactor="1.14" vaporized=""/>
    <tripinfo id="S_59" depart="41.00" departLane="3_1" departPos="9.10" departSpeed="11.18" departDelay="0.00" arrival="81.60" arrivalLane="-1_1" arrivalPos="200.00" arrivalSpeed="11.18" duration="40.60" routeLength="413.30" waitingTime="1.45" waitingCount="2" stopTime="0.00" timeLoss="-4967.95" rerouteNo="0" devices="tripinfo_S_59" vType="car9@S_59" speedFactor="0.97" vaporized=""/>
    <tripinfo id="L_53" depart="35.00" departLane="4_0" departPos="7.10" departSpeed="11.18" departDelay="0.00" arrival="83.35" arrivalLane="-1_1" arrivalPos="200.00" arrivalSpeed="11.18" duration="48.35" routeLength="417.34" waitingTime="9.80" waitingCount="1" stopTime="0.00" timeLoss="-4845.50" rerouteNo="0" devices="tripinfo_L_53" vType="car7@L_53" speedFactor="1.10" vaporized=""/>
    <tripinfo id="R_70" depart="48.00" departLane="4_2" departPos="8.10" departSpeed="11.18" departDelay="0.00" arrival="83.60" arrivalLane="-3_0" arrivalPos="200.00" arrivalSpeed="11.18" duration="35.60" routeLength="397.06" waitingTime="0.00" waitingCount="0" stopTime="0.00" timeLoss="-2.58" rerouteNo="0" devices="tripinfo_R_70" vType="car8@R_70" speedFactor="1.02" vaporized=""/>
    <tripinfo id="L_55" depart="37.00" departLane="1_2" departPos="6.10" departSpeed="11.18" departDelay="0.00" arrival="84.95" arrivalLane="-2_2" arrivalPos="200.00" arrivalSpeed="11.18" duration="47.95" routeLength="413.45" waitingTime="7.80" waitingCount="1" stopTime="0.00" timeLoss="-4875.59" rerouteNo="0" devices="tripinfo_L_55" vType="car6@L_55" speedFactor="1.00" vaporized=""/>
    <tripinfo id="R_65" depart="45.00" departLane="2_1" departPos="7.10" departSpeed="11.18" departDelay="0.00" arrival="85.70" arrivalLane="-1_0" arrivalPos="200.00" arrivalSpeed="11.18" duration="40.70" routeLength="398.06" waitingTime="3.95" waitingCount="1" stopTime="0.00" timeLoss="-4549.54" rerouteNo="0" devices="tripinfo_R_65" vType="car7@R_65" speedFactor="0.88" vaporized=""/>
    <tripinfo id="L_62" depart="43.00" departLane="1_1" departPos="5.10" departSpeed="11.18" departDelay="0.00" arrival="85.80" arrivalLane="-2_2" arrivalPos="200.00" arrivalSpeed="11.18" duration="42.80" routeLength="414.45" waitingTime="4.25" waitingCount="1" stopTime="0.00" timeLoss="3.23" rerouteNo="0" devices="tripinfo_L_62" vType="car5@L_62" speedFactor="1.02" vaporized=""/>
    <tripinfo id="S_54" depart="36.00" departLane="3_2" departPos="6.10" departSpeed="11.18" departDelay="0.00" arrival="86.50" arrivalLane="-1_2" arrivalPos="200.00" arrivalSpeed="11.18" duration="50.50" routeLength="416.30" waitingTime="9.25" waitingCount="5" stopTime="0.00" timeLoss="-4913.64" rerouteNo="0" devices="tripinfo_S_54" vType="car6@S_54" speedFactor="1.00" vaporized=""/>
    <tripinfo id="S_61" depart="42.00" departLane="3_2" departPos="7.10" departSpeed="11.18" departDelay="0.00" arrival="87.30" arrivalLane="-1_2" arrivalPos="200.00" arrivalSpeed="11.18" duration="45.30" routeLength="415.30" waitingTime="5.35" waitingCount="2" stopTime="0.00" timeLoss="8.14" rerouteNo="0" devices="tripinfo_S_61" vType="car7@S_61" speedFactor="1.12" vaporized=""/>
    <tripinfo id="S_66" depart="45.00" departLane="3_0" departPos="9.10" departSpeed="11.18" departDelay="0.00" arrival="87.45" arrivalLane="-1_1" arrivalPos="200.00" arrivalSpeed="11.18" duration="42.45" routeLength="413.30" waitingTime="0.00" waitingCount="0" stopTime="0.00" timeLoss="-0.94" rerouteNo="0" devices="tripinfo_S_66" vType="car9@S_66" speedFactor="0.91" vaporized=""/>
    <tripinfo id="S_68" depart="46.00" departLane="3_2" departPos="8.10" departSpeed="11.18" departDelay="0.00" arrival="87.95" arrivalLane="-1_0" arrivalPos="200.00" arrivalSpeed="11.18" duration="41.95" routeLength="414.30" waitingTime="0.00" waitingCount="0" stopTime="0.00" timeLoss="1.76" rerouteNo="0" devices="tripinfo_S_68" vType="car8@S_68" speedFactor="1.04" vaporized=""/>
    <tripinfo id="R_64" depart="45.00" departLane="1_1" departPos="6.10" departSpeed="11.18" departDelay="0.00" arrival="88.55" arrivalLane="-4_2" arrivalPos="200.00" arrivalSpeed="11.18" duration="43.55" routeLength="409.38" waitingTime="4.55" waitingCount="2" stopTime="0.00" timeLoss="-4540.88" rerouteNo="0" devices="tripinfo_R_64" vType="car6@R_64" speedFactor="0.94" vaporized=""/>
    <tripinfo id="L_67" depart="45.00" departLane="4_0" departPos="7.10" departSpeed="11.18" departDelay="0.00" arrival="88.70" arrivalLane="-1_2" arrivalPos="200.00" arrivalSpeed="11.18" duration="43.70" routeLength="412.45" waitingTime="5.65" waitingCount="1" stopTime="0.00" timeLoss="-4845.84" rerouteNo="0" devices="tripinfo_L_67" vType="car7@L_67" speedFactor="0.91" vaporized=""/>
    <tripinfo id="R_71" depart="49.00" departLane="2_1" departPos="6.10" departSpeed="11.18" departDelay="0.00" arrival="89.40" arrivalLane="-1_0" arrivalPos="200.00" arrivalSpeed="11.18" duration="40.40" routeLength="399.06" waitingTime="2.50" waitingCount="2" stopTime="0.00" timeLoss="-4927.67" rerouteNo="0" devices="tripinfo_R_71" vType="car6@R_71" speedFactor="0.97" vaporized=""/>
    <tripinfo id="L_69" depart="47.00" departLane="2_0" departPos="6.10" departSpeed="11.18" departDelay="0.00" arrival="92.05" arrivalLane="-3_2" arrivalPos="200.00" arrivalSpeed="11.18" duration="45.05" routeLength="413.45" waitingTime="6.95" waitingCount="1" stopTime="0.00" timeLoss="-4726.31" rerouteNo="0" devices="tripinfo_L_69" vType="car6@L_69" speedFactor="1.02" vaporized=""/>
    <tripinfo id="R_79" depart="57.00" departLane="3_0" departPos="6.10" departSpeed="11.18" departDelay="0.00" arrival="92.80" arrivalLane="-2_0" arrivalPos="200.00" arrivalSpeed="11.18" duration="35.80" routeLength="399.06" waitingTime="0.00" waitingCount="0" stopTime="0.00" timeLoss="-2.53" rerouteNo="0" devices="tripinfo_R_79" vType="car6@R_79" speedFactor="1.09" vaporized=""/>
    <tripinfo id="S_78" depart="56.00" departLane="1_0" departPos="6.10" departSpeed="11.18" departDelay="0.00" arrival="93.35" arrivalLane="-3_0" arrivalPos="200.00" arrivalSpeed="11.18" duration="37.35" routeLength="416.30" waitingTime="0.00" waitingCount="0" stopTime="0.00" timeLoss="0.00" rerouteNo="0" devices="tripinfo_S_78" vType="car6@S_78" speedFactor="1.01" vaporized=""/>
    <tripinfo id="S_63" depart="44.00" departLane="1_1" departPos="6.10" departSpeed="11.18" departDelay="0.00" arrival="93.45" arrivalLane="-3_2" arrivalPos="200.00" arrivalSpeed="11.18" duration="49.45" routeLength="416.30" waitingTime="6.25" waitingCount="4" stopTime="0.00" timeLoss="-4933.53" rerouteNo="0" devices="tripinfo_S_63" vType="car6@S_63" speedFactor="0.99" vaporized=""/>