<?xml version="1.0" encoding="UTF-8"?>

<!-- generated on 01/14/21 14:07:17 by Eclipse SUMO sumo Version 1.8.0
<configuration xmlns:xsi="http://www.w3.org/2001/XMLSchema-instance" xsi:noNamespaceSchemaLocation="http://sumo.dlr.de/xsd/sumoConfiguration.xsd">

    <input>
        <net-file value="data/lane3.net.xml"/>
        <route-files value="data/icacc+.rou.xml"/>
        <additional-files value="data/icacc+.det.xml"/>
    </input>

    <output>
        <tripinfo-output value="tripinfo.xml"/>
    </output>

    <time>
        <begin value="0"/>
        <step-length value="0.1"/>
    </time>

    <processing>
        <collision.mingap-factor value="0"/>
        <time-to-teleport value="-1"/>
        <lanechange.duration value="0.5"/>
    </processing>

    <report>
        <verbose value="true"/>
        <no-step-log value="true"/>
    </report>

    <traci_server>
        <remote-port value="11861"/>
    </traci_server>

    <gui_only>
        <start value="true"/>
        <tracker-interval value="0.1"/>
    </gui_only>

</configuration>
-->

<tripinfos xmlns:xsi="http://www.w3.org/2001/XMLSchema-instance" xsi:noNamespaceSchemaLocation="http://sumo.dlr.de/xsd/tripinfo_file.xsd">
    <tripinfo id="R_0" depart="0.00" departLane="1_0" departPos="8.10" departSpeed="11.18" departDelay="0.00" arrival="35.60" arrivalLane="-4_0" arrivalPos="200.00" arrivalSpeed="11.18" duration="35.60" routeLength="397.06" waitingTime="0.00" waitingCount="0" stopTime="0.00" timeLoss="-2.55" rerouteNo="0" devices="tripinfo_R_0" vType="car8@R_0" speedFactor="1.06" vaporized=""/>
    <tripinfo id="R_2" depart="0.00" departLane="3_2" departPos="7.10" departSpeed="11.18" departDelay="0.00" arrival="35.70" arrivalLane="-2_0" arrivalPos="200.00" arrivalSpeed="11.18" duration="35.70" routeLength="398.06" waitingTime="0.00" waitingCount="0" stopTime="0.00" timeLoss="-2.59" rerouteNo="0" devices="tripinfo_R_2" vType="car7@R_2" speedFactor="1.01" vaporized=""/>
    <tripinfo id="R_3" depart="1.30" departLane="2_2" departPos="7.10" departSpeed="11.18" departDelay="0.30" arrival="37.00" arrivalLane="-1_0" arrivalPos="200.00" arrivalSpeed="11.18" duration="35.70" routeLength="398.06" waitingTime="0.00" waitingCount="0" stopTime="0.00" timeLoss="-2.53" rerouteNo="0" devices="tripinfo_R_3" vType="car7@R_3" speedFactor="1.08" vaporized=""/>
    <tripinfo id="S_1" depart="0.00" departLane="2_0" departPos="5.10" departSpeed="11.18" departDelay="0.00" arrival="37.40" arrivalLane="-4_2" arrivalPos="200.00" arrivalSpeed="11.18" duration="37.40" routeLength="417.30" waitingTime="0.00" waitingCount="0" stopTime="0.00" timeLoss="0.00" rerouteNo="0" devices="tripinfo_S_1" vType="car5@S_1" speedFactor="0.94" vaporized=""/>
    <tripinfo id="R_4" depart="1.10" departLane="3_0" departPos="5.10" departSpeed="11.18" departDelay="0.10" arrival="38.00" arrivalLane="-2_2" arrivalPos="200.00" arrivalSpeed="11.18" duration="36.90" routeLength="410.38" waitingTime="0.00" waitingCount="0" stopTime="0.00" timeLoss="-2.37" rerouteNo="0" devices="tripinfo_R_4" vType="car5@R_4" speedFactor="1.03" vaporized=""/>
    <tripinfo id="R_12" depart="3.00" departLane="4_1" departPos="9.10" departSpeed="11.18" departDelay="0.00" arrival="38.50" arrivalLane="-3_0" arrivalPos="200.00" arrivalSpeed="11.18" duration="35.50" routeLength="396.06" waitingTime="0.00" waitingCount="0" stopTime="0.00" timeLoss="-2.64" rerouteNo="0" devices="tripinfo_R_12" vType="car9@R_12" speedFactor="1.05" vaporized=""/>
    <tripinfo id="L_5" depart="1.00" departLane="4_0" departPos="7.10" departSpeed="11.18" departDelay="0.00" arrival="38.60" arrivalLane="-1_1" arrivalPos="200.00" arrivalSpeed="11.18" duration="37.60" routeLength="417.34" waitingTime="0.00" waitingCount="0" stopTime="0.00" timeLoss="-2.52" rerouteNo="0" devices="tripinfo_L_5" vType="car7@L_5" speedFactor="0.83" vaporized=""/>
    <tripinfo id="R_10" depart="3.00" departLane="2_1" departPos="7.10" departSpeed="11.18" departDelay="0.00" arrival="38.70" arrivalLane="-1_0" arrivalPos="200.00" arrivalSpeed="11.18" duration="35.70" routeLength="398.06" waitingTime="0.00" waitingCount="0" stopTime="0.00" timeLoss="-2.52" rerouteNo="0" devices="tripinfo_R_10" vType="car7@R_10" speedFactor="1.09" vaporized=""/>
    <tripinfo id="R_13" depart="4.00" departLane="1_1" departPos="9.10" departSpeed="11.18" departDelay="0.00" arrival="39.50" arrivalLane="-4_0" arrivalPos="200.00" arrivalSpeed="11.18" duration="35.50" routeLength="396.06" waitingTime="0.00" waitingCount="0" stopTime="0.00" timeLoss="-2.56" rerouteNo="0" devices="tripinfo_R_13" vType="car9@R_13" speedFactor="1.12" vaporized=""/>
    <tripinfo id="L_7" depart="2.40" departLane="3_2" departPos="7.10" departSpeed="11.18" departDelay="0.40" arrival="39.60" arrivalLane="-4_2" arrivalPos="200.00" arrivalSpeed="11.18" duration="37.20" routeLength="412.45" waitingTime="0.00" waitingCount="0" stopTime="0.00" timeLoss="-2.55" rerouteNo="0" devices="tripinfo_L_7" vType="car7@L_7" speedFactor="0.89" vaporized=""/>
    <tripinfo id="S_9" depart="3.00" departLane="1_2" departPos="6.10" departSpeed="11.18" departDelay="0.00" arrival="40.40" arrivalLane="-3_2" arrivalPos="200.00" arrivalSpeed="11.18" duration="37.40" routeLength="416.30" waitingTime="0.00" waitingCount="0" stopTime="0.00" timeLoss="-0.02" rerouteNo="0" devices="tripinfo_S_9" vType="car6@S_9" speedFactor="0.86" vaporized=""/>
    <tripinfo id="R_19" depart="5.00" departLane="3_0" departPos="6.10" departSpeed="11.18" departDelay="0.00" arrival="40.80" arrivalLane="-2_0" arrivalPos="200.00" arrivalSpeed="11.18" duration="35.80" routeLength="399.06" waitingTime="0.00" waitingCount="0" stopTime="0.00" timeLoss="-2.47" rerouteNo="0" devices="tripinfo_R_19" vType="car6@R_19" speedFactor="1.16" vaporized=""/>
    <tripinfo id="S_15" depart="4.00" departLane="3_1" departPos="6.10" departSpeed="11.18" departDelay="0.00" arrival="41.30" arrivalLane="-1_1" arrivalPos="200.00" arrivalSpeed="11.18" duration="37.30" routeLength="416.30" waitingTime="0.00" waitingCount="0" stopTime="0.00" timeLoss="0.00" rerouteNo="0" devices="tripinfo_S_15" vType="car6@S_15" speedFactor="0.93" vaporized=""/>
    <tripinfo id="R_21" depart="6.00" departLane="1_1" departPos="8.10" departSpeed="11.18" departDelay="0.00" arrival="41.60" arrivalLane="-4_0" arrivalPos="200.00" arrivalSpeed="11.18" duration="35.60" routeLength="397.06" waitingTime="0.00" waitingCount="0" stopTime="0.00" timeLoss="-2.60" rerouteNo="0" devices="tripinfo_R_21" vType="car8@R_21" speedFactor="1.01" vaporized=""/>
    <tripinfo id="R_6" depart="2.20" departLane="2_1" departPos="7.10" departSpeed="11.18" departDelay="0.20" arrival="41.90" arrivalLane="-1_0" arrivalPos="200.00" arrivalSpeed="11.18" duration="39.70" routeLength="398.06" waitingTime="0.00" waitingCount="0" stopTime="0.00" timeLoss="1.39" rerouteNo="0" devices="tripinfo_R_6" vType="car7@R_6" speedFactor="1.05" vaporized=""/>
    <tripinfo id="L_8" depart="2.00" departLane="4_2" departPos="7.10" departSpeed="11.18" departDelay="0.00" arrival="42.10" arrivalLane="-1_2" arrivalPos="200.00" arrivalSpeed="11.18" duration="40.10" routeLength="412.45" waitingTime="2.10" waitingCount="1" stopTime="0.00" timeLoss="-4297.99" rerouteNo="0" devices="tripinfo_L_8" vType="car7@L_8" speedFactor="0.94" vaporized=""/>
    <tripinfo id="R_22" depart="6.00" departLane="3_2" departPos="6.10" departSpeed="11.18" departDelay="0.00" arrival="42.40" arrivalLane="-2_0" arrivalPos="200.00" arrivalSpeed="11.18" duration="36.40" routeLength="399.06" waitingTime="0.00" waitingCount="0" stopTime="0.00" timeLoss="-2.07" rerouteNo="0" devices="tripinfo_R_22" vType="car6@R_22" speedFactor="0.98" vaporized=""/>
    <tripinfo id="L_16" depart="4.00" departLane="4_1" departPos="5.10" departSpeed="11.18" departDelay="0.00" arrival="43.00" arrivalLane="-1_2" arrivalPos="200.00" arrivalSpeed="11.18" duration="39.00" routeLength="414.45" waitingTime="0.60" waitingCount="1" stopTime="0.00" timeLoss="-0.87" rerouteNo="0" devices="tripinfo_L_16" vType="car5@L_16" speedFactor="0.88" vaporized=""/>
    <tripinfo id="L_11" depart="3.70" departLane="3_2" departPos="7.10" departSpeed="11.18" departDelay="0.70" arrival="43.40" arrivalLane="-4_2" arrivalPos="200.00" arrivalSpeed="11.18" duration="39.70" routeLength="412.45" waitingTime="1.70" waitingCount="1" stopTime="0.00" timeLoss="-4297.80" rerouteNo="0" devices="tripinfo_L_11" vType="car7@L_11" speedFactor="1.03" vaporized=""/>
    <tripinfo id="L_14" depart="4.50" departLane="2_1" departPos="9.10" departSpeed="11.18" departDelay="0.50" arrival="43.80" arrivalLane="-3_2" arrivalPos="200.00" arrivalSpeed="11.18" duration="39.30" routeLength="410.45" waitingTime="1.40" waitingCount="1" stopTime="0.00" timeLoss="-4528.77" rerouteNo="0" devices="tripinfo_L_14" vType="car9@L_14" speedFactor="0.99" vaporized=""/>
    <tripinfo id="R_28" depart="8.00" departLane="3_1" departPos="7.10" departSpeed="11.18" departDelay="0.00" arrival="43.80" arrivalLane="-2_0" arrivalPos="200.00" arrivalSpeed="11.18" duration="35.80" routeLength="398.06" waitingTime="0.00" waitingCount="0" stopTime="0.00" timeLoss="-2.38" rerouteNo="0" devices="tripinfo_R_28" vType="car7@R_28" speedFactor="1.13" vaporized=""/>
    <tripinfo id="R_31" depart="9.00" departLane="4_1" departPos="8.10" departSpeed="11.18" departDelay="0.00" arrival="44.60" arrivalLane="-3_0" arrivalPos="200.00" arrivalSpeed="11.18" duration="35.60" routeLength="397.06" waitingTime="0.00" waitingCount="0" stopTime="0.00" timeLoss="-2.47" rerouteNo="0" devices="tripinfo_R_31" vType="car8@R_31" speedFactor="1.15" vaporized=""/>
    <tripinfo id="L_18" depart="5.90" departLane="2_2" departPos="8.10" departSpeed="11.18" departDelay="0.90" arrival="45.00" arrivalLane="-3_2" arrivalPos="200.00" arrivalSpeed="11.18" duration="39.10" routeLength="411.45" waitingTime="1.10" waitingCount="1" stopTime="0.00" timeLoss="-0.53" rerouteNo="0" devices="tripinfo_L_18" vType="car8@L_18" speedFactor="0.94" vaporized=""/>
    <tripinfo id="R_23" depart="9.20" departLane="1_0" departPos="6.10" departSpeed="11.18" departDelay="2.20" arrival="46.80" arrivalLane="-4_0" arrivalPos="200.00" arrivalSpeed="11.18" duration="37.60" routeLength="399.06" waitingTime="0.00" waitingCount="0" stopTime="0.00" timeLoss="-0.94" rerouteNo="0" devices="tripinfo_R_23" vType="car6@R_23" speedFactor="0.89" vaporized=""/>
    <tripinfo id="L_25" depart="7.00" departLane="4_0" departPos="7.10" departSpeed="11.18" departDelay="0.00" arrival="47.30" arrivalLane="-1_1" arrivalPos="200.00" arrivalSpeed="11.18" duration="40.30" routeLength="417.34" waitingTime="1.80" waitingCount="1" stopTime="0.00" timeLoss="-4297.97" rerouteNo="0" devices="tripinfo_L_25" vType="car7@L_25" speedFactor="0.87" vaporized=""/>
    <tripinfo id="S_17" depart="5.00" departLane="1_1" departPos="7.10" departSpeed="11.18" departDelay="0.00" arrival="47.40" arrivalLane="-3_0" arrivalPos="200.00" arrivalSpeed="11.18" duration="42.40" routeLength="415.30" waitingTime="1.10" waitingCount="1" stopTime="0.00" timeLoss="-4919.03" rerouteNo="0" devices="tripinfo_S_17" vType="car7@S_17" speedFactor="0.94" vaporized=""/>
    <tripinfo id="L_24" depart="7.40" departLane="2_2" departPos="9.10" departSpeed="11.18" departDelay="0.40" arrival="49.00" arrivalLane="-3_2" arrivalPos="200.00" arrivalSpeed="11.18" duration="41.60" routeLength="410.45" waitingTime="2.50" waitingCount="2" stopTime="0.00" timeLoss="-4875.49" rerouteNo="0" devices="tripinfo_L_24" vType="car9@L_24" speedFactor="0.83" vaporized=""/>
    <tripinfo id="S_29" depart="9.00" departLane="2_2" departPos="5.10" departSpeed="11.18" departDelay="0.00" arrival="49.60" arrivalLane="-4_1" arrivalPos="200.00" arrivalSpeed="11.18" duration="40.60" routeLength="417.30" waitingTime="1.80" waitingCount="1" stopTime="0.00" timeLoss="-4668.39" rerouteNo="0" devices="tripinfo_S_29" vType="car5@S_29" speedFactor="0.93" vaporized=""/>
    <tripinfo id="R_46" depart="14.00" departLane="2_0" departPos="9.10" departSpeed="11.18" departDelay="0.00" arrival="49.60" arrivalLane="-1_0" arrivalPos="200.00" arrivalSpeed="11.18" duration="35.60" routeLength="396.06" waitingTime="0.00" waitingCount="0" stopTime="0.00" timeLoss="-2.69" rerouteNo="0" devices="tripinfo_R_46" vType="car9@R_46" speedFactor="1.00" vaporized=""/>
    <tripinfo id="S_40" depart="12.00" departLane="2_0" departPos="5.10" departSpeed="11.18" departDelay="0.00" arrival="50.00" arrivalLane="-4_0" arrivalPos="200.00" arrivalSpeed="11.18" duration="38.00" routeLength="417.30" waitingTime="0.00" waitingCount="0" stopTime="0.00" timeLoss="-1.05" rerouteNo="0" devices="tripinfo_S_40" vType="car5@S_40" speedFactor="1.03" vaporized=""/>
    <tripinfo id="S_20" depart="5.00" departLane="4_0" departPos="8.10" departSpeed="11.18" departDelay="0.00" arrival="50.20" arrivalLane="-2_2" arrivalPos="200.00" arrivalSpeed="11.18" duration="45.20" routeLength="414.30" waitingTime="4.40" waitingCount="1" stopTime="0.00" timeLoss="-3909.34" rerouteNo="0" devices="tripinfo_S_20" vType="car8@S_20" speedFactor="1.02" vaporized=""/>
    <tripinfo id="S_36" depart="11.00" departLane="2_0" departPos="5.10" departSpeed="11.18" departDelay="0.00" arrival="50.30" arrivalLane="-4_1" arrivalPos="200.00" arrivalSpeed="11.18" duration="39.30" routeLength="417.30" waitingTime="0.90" waitingCount="1" stopTime="0.00" timeLoss="1.95" rerouteNo="0" devices="tripinfo_S_36" vType="car5@S_36" speedFactor="0.97" vaporized=""/>
    <tripinfo id="S_30" depart="9.40" departLane="3_0" departPos="8.10" departSpeed="11.18" departDelay="0.40" arrival="51.90" arrivalLane="-1_2" arrivalPos="200.00" arrivalSpeed="11.18" duration="42.50" routeLength="414.30" waitingTime="4.40" waitingCount="1" stopTime="0.00" timeLoss="-4668.82" rerouteNo="0" devices="tripinfo_S_30" vType="car8@S_30" speedFactor="1.18" vaporized=""/>
    <tripinfo id="R_42" depart="14.00" departLane="1_0" departPos="8.10" departSpeed="11.18" departDelay="1.00" arrival="52.00" arrivalLane="-4_0" arrivalPos="200.00" arrivalSpeed="11.18" duration="38.00" routeLength="397.06" waitingTime="1.10" waitingCount="1" stopTime="0.00" timeLoss="-0.15" rerouteNo="0" devices="tripinfo_R_42" vType="car8@R_42" speedFactor="1.09" vaporized=""/>
    <tripinfo id="S_44" depart="13.00" departLane="3_0" departPos="8.10" departSpeed="11.18" departDelay="0.00" arrival="52.20" arrivalLane="-1_1" arrivalPos="200.00" arrivalSpeed="11.18" duration="39.20" routeLength="414.30" waitingTime="1.20" waitingCount="1" stopTime="0.00" timeLoss="-4405.61" rerouteNo="0" devices="tripinfo_S_44" vType="car8@S_44" speedFactor="1.04" vaporized=""/>
    <tripinfo id="S_37" depart="11.00" departLane="3_0" departPos="6.10" departSpeed="11.18" departDelay="0.00" arrival="52.40" arrivalLane="-1_0" arrivalPos="200.00" arrivalSpeed="11.18" duration="41.40" routeLength="416.30" waitingTime="3.20" waitingCount="1" stopTime="0.00" timeLoss="-4180.09" rerouteNo="0" devices="tripinfo_S_37" vType="car6@S_37" speedFactor="1.18" vaporized=""/>
    <tripinfo id="S_38" depart="11.00" departLane="4_0" departPos="9.10" departSpeed="11.18" departDelay="0.00" arrival="52.50" arrivalLane="-2_0" arrivalPos="200.00" arrivalSpeed="11.18" duration="41.50" routeLength="413.30" waitingTime="3.50" waitingCount="1" stopTime="0.00" timeLoss="-4526.49" rerouteNo="0" devices="tripinfo_S_38" vType="car9@S_38" speedFactor="1.10" vaporized=""/>
    <tripinfo id="S_26" depart="10.50" departLane="1_0" departPos="7.10" departSpeed="11.18" departDelay="2.50" arrival="52.60" arrivalLane="-3_0" arrivalPos="200.00" arrivalSpeed="11.18" duration="42.10" routeLength="415.30" waitingTime="2.50" waitingCount="1" stopTime="0.00" timeLoss="-4206.62" rerouteNo="0" devices="tripinfo_S_26" vType="car7@S_26" speedFactor="0.92" vaporized=""/>
    <tripinfo id="S_35" depart="11.00" departLane="1_1" departPos="6.10" departSpeed="11.18" departDelay="0.00" arrival="52.90" arrivalLane="-3_1" arrivalPos="200.00" arrivalSpeed="11.18" duration="41.90" routeLength="416.30" waitingTime="3.70" waitingCount="1" stopTime="0.00" timeLoss="-4180.09" rerouteNo="0" devices="tripinfo_S_35" vType="car6@S_35" speedFactor="1.02" vaporized=""/>
    <tripinfo id="S_45" depart="15.10" departLane="1_0" departPos="5.10" departSpeed="11.18" departDelay="1.10" arrival="53.70" arrivalLane="-3_1" arrivalPos="200.00" arrivalSpeed="11.18" duration="38.60" routeLength="417.30" waitingTime="0.00" waitingCount="0" stopTime="0.00" timeLoss="1.22" rerouteNo="0" devices="tripinfo_S_45" vType="car5@S_45" speedFactor="1.09" vaporized=""/>
    <tripinfo id="R_50" depart="15.00" departLane="4_2" departPos="5.10" departSpeed="11.18" departDelay="0.00" arrival="53.90" arrivalLane="-3_0" arrivalPos="200.00" arrivalSpeed="11.18" duration="38.90" routeLength="400.06" waitingTime="1.00" waitingCount="2" stopTime="0.00" timeLoss="-4884.09" rerouteNo="0" devices="tripinfo_R_50" vType="car5@R_50" speedFactor="0.85" vaporized=""/>
    <tripinfo id="R_56" depart="17.00" departLane="3_1" departPos="8.10" departSpeed="11.18" departDelay="0.00" arrival="54.00" arrivalLane="-2_0" arrivalPos="200.00" arrivalSpeed="11.18" duration="37.00" routeLength="397.06" waitingTime="0.50" waitingCount="1" stopTime="0.00" timeLoss="-4408.32" rerouteNo="0" devices="tripinfo_R_56" vType="car8@R_56" speedFactor="0.90" vaporized=""/>
    <tripinfo id="L_27" depart="8.00" departLane="2_1" departPos="7.10" departSpeed="11.18" departDelay="0.00" arrival="54.40" arrivalLane="-3_2" arrivalPos="200.00" arrivalSpeed="11.18" duration="46.40" routeLength="412.45" waitingTime="4.80" waitingCount="2" stopTime="0.00" timeLoss="-4956.73" rerouteNo="0" devices="tripinfo_L_27" vType="car7@L_27" speedFactor="0.95" vaporized=""/>
    <tripinfo id="S_52" depart="17.10" departLane="2_2" departPos="6.10" departSpeed="11.18" departDelay="1.10" arrival="54.70" arrivalLane="-4_1" arrivalPos="200.00" arrivalSpeed="11.18" duration="37.60" routeLength="416.30" waitingTime="0.00" waitingCount="0" stopTime="0.00" timeLoss="-0.24" rerouteNo="0" devices="tripinfo_S_52" vType="car6@S_52" speedFactor="1.02" vaporized=""/>
    <tripinfo id="L_33" depart="10.60" departLane="2_1" departPos="5.10" departSpeed="11.18" departDelay="0.60" arrival="55.30" arrivalLane="-3_2" arrivalPos="200.00" arrivalSpeed="11.18" duration="44.70" routeLength="414.45" waitingTime="3.80" waitingCount="3" stopTime="0.00" timeLoss="5.26" rerouteNo="0" devices="tripinfo_L_33" vType="car5@L_33" speedFactor="1.17" vaporized=""/>
    <tripinfo id="R_65" depart="20.00" departLane="2_0" departPos="6.10" departSpeed="11.18" departDelay="0.00" arrival="55.80" arrivalLane="-1_0" arrivalPos="200.00" arrivalSpeed="11.18" duration="35.80" routeLength="399.06" waitingTime="0.00" waitingCount="0" stopTime="0.00" timeLoss="-2.73" rerouteNo="0" devices="tripinfo_R_65" vType="car6@R_65" speedFactor="0.88" vaporized=""/>
    <tripinfo id="S_59" depart="18.20" departLane="3_0" departPos="6.10" departSpeed="11.18" departDelay="0.20" arrival="56.50" arrivalLane="-1_1" arrivalPos="200.00" arrivalSpeed="11.18" duration="38.30" routeLength="416.30" waitingTime="0.10" waitingCount="1" stopTime="0.00" timeLoss="-4180.09" rerouteNo="0" devices="tripinfo_S_59" vType="car6@S_59" speedFactor="0.97" vaporized=""/>
    <tripinfo id="R_58" depart="18.00" departLane="1_2" departPos="6.10" departSpeed="11.18" departDelay="0.00" arrival="56.70" arrivalLane="-4_0" arrivalPos="200.00" arrivalSpeed="11.18" duration="38.70" routeLength="399.06" waitingTime="0.10" waitingCount="1" stopTime="0.00" timeLoss="0.30" rerouteNo="0" devices="tripinfo_R_58" vType="car6@R_58" speedFactor="1.02" vaporized=""/>
    <tripinfo id="S_41" depart="12.00" departLane="4_1" departPos="6.10" departSpeed="11.18" departDelay="0.00" arrival="57.10" arrivalLane="-2_1" arrivalPos="200.00" arrivalSpeed="11.18" duration="45.10" routeLength="416.30" waitingTime="6.90" waitingCount="1" stopTime="0.00" timeLoss="-4180.09" rerouteNo="0" devices="tripinfo_S_41" vType="car6@S_41" speedFactor="0.96" vaporized=""/>
    <tripinfo id="S_51" depart="16.80" departLane="1_0" departPos="8.10" departSpeed="11.18" departDelay="0.80" arrival="57.20" arrivalLane="-3_0" arrivalPos="200.00" arrivalSpeed="11.18" duration="40.40" routeLength="414.30" waitingTime="1.20" waitingCount="1" stopTime="0.00" timeLoss="-4690.74" rerouteNo="0" devices="tripinfo_S_51" vType="car8@S_51" speedFactor="1.17" vaporized=""/>
    <tripinfo id="S_39" depart="12.50" departLane="1_1" departPos="9.10" departSpeed="11.18" departDelay="0.50" arrival="57.50" arrivalLane="-3_1" arrivalPos="200.00" arrivalSpeed="11.18" duration="45.00" routeLength="413.30" waitingTime="0.20" waitingCount="1" stopTime="0.00" timeLoss="-4567.96" rerouteNo="0" devices="tripinfo_S_39" vType="car9@S_39" speedFactor="0.90" vaporized=""/>
    <tripinfo id="S_32" depart="11.80" departLane="1_0" departPos="7.10" departSpeed="11.18" departDelay="1.80" arrival="57.70" arrivalLane="-3_2" arrivalPos="200.00" arrivalSpeed="11.18" duration="45.90" routeLength="415.30" waitingTime="6.30" waitingCount="1" stopTime="0.00" timeLoss="-4336.62" rerouteNo="0" devices="tripinfo_S_32" vType="car7@S_32" speedFactor="1.01" vaporized=""/>
    <tripinfo id="R_71" depart="22.10" departLane="1_2" departPos="5.10" departSpeed="11.18" departDelay="0.10" arrival="58.40" arrivalLane="-4_0" arrivalPos="200.00" arrivalSpeed="11.18" duration="36.30" routeLength="400.06" waitingTime="0.00" waitingCount="0" stopTime="0.00" timeLoss="-2.27" rerouteNo="0" devices="tripinfo_R_71" vType="car5@R_71" speedFactor="0.97" vaporized=""/>
    <tripinfo id="S_48" depart="16.40" departLane="1_0" departPos="7.10" departSpeed="11.18" departDelay="1.40" arrival="58.70" arrivalLane="-3_1" arrivalPos="200.00" arrivalSpeed="11.18" duration="42.30" routeLength="415.30" waitingTime="0.10" waitingCount="1" stopTime="0.00" timeLoss="5.13" rerouteNo="0" devices="tripinfo_S_48" vType="car7@S_48" speedFactor="0.88" vaporized=""/>
    <tripinfo id="S_68" depart="21.50" departLane="2_0" departPos="9.10" departSpeed="11.18" departDelay="0.50" arrival="59.20" arrivalLane="-4_1" arrivalPos="200.00" arrivalSpeed="11.18" duration="37.70" routeLength="413.30" waitingTime="0.00" waitingCount="0" stopTime="0.00" timeLoss="-1.63" rerouteNo="0" devices="tripinfo_S_68" vType="car9@S_68" speedFactor="1.04" vaporized=""/>
    <tripinfo id="L_34" depart="10.30" departLane="3_1" departPos="7.10" departSpeed="11.18" departDelay="0.30" arrival="59.80" arrivalLane="-4_2" arrivalPos="200.00" arrivalSpeed="11.18" duration="49.50" routeLength="412.45" waitingTime="6.90" waitingCount="2" stopTime="0.00" timeLoss="-4990.15" rerouteNo="0" devices="tripinfo_L_34" vType="car7@L_34" speedFactor="0.99" vaporized=""/>
    <tripinfo id="L_43" depart="13.20" departLane="2_0" departPos="6.10" departSpeed="11.18" departDelay="0.20" arrival="60.30" arrivalLane="-3_2" arrivalPos="200.00" arrivalSpeed="11.18" duration="47.10" routeLength="413.45" waitingTime="6.80" waitingCount="2" stopTime="0.00" timeLoss="-4012.57" rerouteNo="0" devices="tripinfo_L_43" vType="car6@L_43" speedFactor="1.04" vaporized=""/>
    <tripinfo id="S_72" depart="22.60" departLane="2_1" departPos="5.10" departSpeed="11.18" departDelay="0.60" arrival="60.30" arrivalLane="-4_1" arrivalPos="200.00" arrivalSpeed="11.18" duration="37.70" routeLength="417.30" waitingTime="0.00" waitingCount="0" stopTime="0.00" timeLoss="0.30" rerouteNo="0" devices="tripinfo_S_72" vType="car5@S_72" speedFactor="0.94" vaporized=""/>
    <tripinfo id="R_79" depart="25.00" departLane="1_0" departPos="9.10" departSpeed="11.18" departDelay="0.00" arrival="60.50" arrivalLane="-4_0" arrivalPos="200.00" arrivalSpeed="11.18" duration="35.50" routeLength="396.06" waitingTime="0.00" waitingCount="0" stopTime="0.00" timeLoss="-2.60" rerouteNo="0" devices="tripinfo_R_79" vType="car9@R_79" speedFactor="1.09" vaporized=""/>
    <tripinfo id="S_49" depart="15.90" departLane="2_2" departPos="8.10" departSpeed="11.18" departDelay="0.90" arrival="61.30" arrivalLane="-4_2" arrivalPos="200.00" arrivalSpeed="11.18" duration="45.40" routeLength="414.30" waitingTime="6.60" waitingCount="2" stopTime="0.00" timeLoss="8.19" rerouteNo="0" devices="tripinfo_S_49" vType="car8@S_49" speedFactor="0.85" vaporized=""/>
    <tripinfo id="R_60" depart="18.50" departLane="4_1" departPos="9.10" departSpeed="11.18" departDelay="0.50" arrival="61.80" arrivalLane="-3_2" arrivalPos="200.00" arrivalSpeed="11.18" duration="43.30" routeLength="406.39" waitingTime="5.80" waitingCount="1" stopTime="0.00" timeLoss="-4528.77" rerouteNo="0" devices="tripinfo_R_60" vType="car9@R_60" speedFactor="1.08" vaporized=""/>
    <tripinfo id="L_47" depart="14.00" departLane="3_0" departPos="8.10" departSpeed="11.18" departDelay="0.00" arrival="62.80" arrivalLane="-4_2" arrivalPos="200.00" arrivalSpeed="11.18" duration="48.80" routeLength="411.45" waitingTime="7.30" waitingCount="2" stopTime="0.00" timeLoss="-4729.38" rerouteNo="0" devices="tripinfo_L_47" vType="car8@L_47" speedFactor="0.90" vaporized=""/>
    <tripinfo id="R_64" depart="25.50" departLane="1_1" departPos="6.10" departSpeed="11.18" departDelay="5.50" arrival="63.10" arrivalLane="-4_0" arrivalPos="200.00" arrivalSpeed="11.18" duration="37.60" routeLength="399.06" waitingTime="0.00" waitingCount="0" stopTime="0.00" timeLoss="-0.88" rerouteNo="0" devices="tripinfo_R_64" vType="car6@R_64" speedFactor="0.94" vaporized=""/>
    <tripinfo id="L_55" depart="17.50" departLane="2_2" departPos="7.10" departSpeed="11.18" departDelay="0.50" arrival="63.40" arrivalLane="-3_2" arrivalPos="200.00" arrivalSpeed="11.18" duration="45.90" routeLength="412.45" waitingTime="5.70" waitingCount="3" stopTime="0.00" timeLoss="-4216.01" rerouteNo="0" devices="tripinfo_L_55" vType="car7@L_55" speedFactor="1.00" vaporized=""/>
    <tripinfo id="L_67" depart="21.00" departLane="1_2" departPos="8.10" departSpeed="11.18" departDelay="0.00" arrival="63.80" arrivalLane="-2_2" arrivalPos="200.00" arrivalSpeed="11.18" duration="42.80" routeLength="411.45" waitingTime="4.30" waitingCount="1" stopTime="0.00" timeLoss="-4795.25" rerouteNo="0" devices="tripinfo_L_67" vType="car8@L_67" speedFactor="0.91" vaporized=""/>
    <tripinfo id="R_87" depart="28.20" departLane="2_0" departPos="5.10" departSpeed="11.18" departDelay="1.20" arrival="64.20" arrivalLane="-1_0" arrivalPos="200.00" arrivalSpeed="11.18" duration="36.00" routeLength="400.06" waitingTime="0.00" waitingCount="0" stopTime="0.00" timeLoss="-2.49" rerouteNo="0" devices="tripinfo_R_87" vType="car5@R_87" speedFactor="1.04" vaporized=""/>
    <tripinfo id="S_83" depart="26.00" departLane="2_1" departPos="5.10" departSpeed="11.18" departDelay="0.00" arrival="64.80" arrivalLane="-4_0" arrivalPos="200.00" arrivalSpeed="11.18" duration="38.80" routeLength="417.30" waitingTime="0.30" waitingCount="1" stopTime="0.00" timeLoss="-4151.54" rerouteNo="0" devices="tripinfo_S_83" vType="car5@S_83" speedFactor="0.97" vaporized=""/>
    <tripinfo id="S_57" depart="17.00" departLane="4_1" departPos="6.10" departSpeed="11.18" departDelay="0.00" arrival="65.30" arrivalLane="-2_1" arrivalPos="200.00" arrivalSpeed="11.18" duration="48.30" routeLength="416.30" waitingTime="8.80" waitingCount="2" stopTime="0.00" timeLoss="-4858.72" rerouteNo="0" devices="tripinfo_S_57" vType="car6@S_57" speedFactor="1.14" vaporized=""/>
    <tripinfo id="L_74" depart="22.00" departLane="4_1" departPos="8.10" departSpeed="11.18" departDelay="0.00" arrival="65.40" arrivalLane="-1_2" arrivalPos="200.00" arrivalSpeed="11.18" duration="43.40" routeLength="411.45" waitingTime="4.20" waitingCount="2" stopTime="0.00" timeLoss="-4693.86" rerouteNo="0" devices="tripinfo_L_74" vType="car8@L_74" speedFactor="0.96" vaporized=""/>
    <tripinfo id="R_90" depart="28.00" departLane="1_2" departPos="8.10" departSpeed="11.18" departDelay="0.00" arrival="66.30" arrivalLane="-4_0" arrivalPos="200.00" arrivalSpeed="11.18" duration="38.30" routeLength="397.06" waitingTime="0.00" waitingCount="0" stopTime="0.00" timeLoss="0.05" rerouteNo="0" devices="tripinfo_R_90" vType="car8@R_90" speedFactor="1.02" vaporized=""/>
    <tripinfo id="L_53" depart="18.70" departLane="3_2" departPos="8.10" departSpeed="11.18" departDelay="2.70" arrival="66.70" arrivalLane="-4_2" arrivalPos="200.00" arrivalSpeed="11.18" duration="48.00" routeLength="411.45" waitingTime="8.10" waitingCount="3" stopTime="0.00" timeLoss="-4736.29" rerouteNo="0" devices="tripinfo_L_53" vType="car8@L_53" speedFactor="1.10" vaporized=""/>
    <tripinfo id="R_70" depart="21.00" departLane="4_0" departPos="5.10" departSpeed="11.18" departDelay="0.00" arrival="66.90" arrivalLane="-3_0" arrivalPos="200.00" arrivalSpeed="11.18" duration="45.90" routeLength="400.06" waitingTime="8.90" waitingCount="1" stopTime="0.00" timeLoss="7.39" rerouteNo="0" devices="tripinfo_R_70" vType="car5@R_70" speedFactor="1.02" vaporized=""/>
    <tripinfo id="S_63" depart="19.00" departLane="4_1" departPos="5.10" departSpeed="11.18" departDelay="0.00" arrival="67.70" arrivalLane="-2_0" arrivalPos="200.00" arrivalSpeed="11.18" duration="48.70" routeLength="417.30" waitingTime="10.40" waitingCount="1" stopTime="0.00" timeLoss="-4185.71" rerouteNo="0" devices="tripinfo_S_63" vType="car5@S_63" speedFactor="0.99" vaporized=""/>
    <tripinfo id="R_103" depart="32.00" departLane="2_1" departPos="6.10" departSpeed="11.18" departDelay="0.00" arrival="67.80" arrivalLane="-1_0" arrivalPos="200.00" arrivalSpeed="11.18" duration="35.80" routeLength="399.06" waitingTime="0.00" waitingCount="0" stopTime="0.00" timeLoss="-2.65" rerouteNo="0" devices="tripinfo_R_103" vType="car6@R_103" speedFactor="0.95" vaporized=""/>