<?xml version="1.0" encoding="UTF-8"?>

<!-- generated on 08/25/20 00:02:37 by Eclipse SUMO GUI Version 1.6.0
<configuration xmlns:xsi="http://www.w3.org/2001/XMLSchema-instance" xsi:noNamespaceSchemaLocation="http://sumo.dlr.de/xsd/sumoConfiguration.xsd">

    <input>
        <net-file value="data/lane3.net.xml"/>
        <route-files value="data/icacc+.rou.xml"/>
        <additional-files value="data/icacc+.det.xml"/>
    </input>

    <output>
        <tripinfo-output value="tripinfo.xml"/>
    </output>

    <time>
        <begin value="0"/>
        <step-length value="0.1"/>
    </time>

    <processing>
        <collision.mingap-factor value="0"/>
        <time-to-teleport value="-1"/>
        <lanechange.duration value="0.5"/>
    </processing>

    <report>
        <verbose value="true"/>
        <no-step-log value="true"/>
    </report>

    <traci_server>
        <remote-port value="6922"/>
    </traci_server>

    <gui_only>
        <start value="true"/>
        <tracker-interval value="0.1"/>
    </gui_only>

</configuration>
-->

<tripinfos xmlns:xsi="http://www.w3.org/2001/XMLSchema-instance" xsi:noNamespaceSchemaLocation="http://sumo.dlr.de/xsd/tripinfo_file.xsd">
    <tripinfo id="R_1" depart="0.00" departLane="2_1" departPos="7.10" departSpeed="11.18" departDelay="0.00" arrival="79.70" arrivalLane="-1_0" arrivalPos="200.00" arrivalSpeed="11.18" duration="79.70" routeLength="398.06" waitingTime="0.00" waitingCount="0" stopTime="0.00" timeLoss="-18.64" rerouteNo="0" devices="tripinfo_R_1" vType="car7@R_1" speedFactor="0.94" vaporized=""/>
    <tripinfo id="R_15" depart="11.00" departLane="4_1" departPos="9.10" departSpeed="11.18" departDelay="0.00" arrival="79.70" arrivalLane="-3_0" arrivalPos="200.00" arrivalSpeed="11.18" duration="68.70" routeLength="396.06" waitingTime="32.20" waitingCount="1" stopTime="0.00" timeLoss="-4529.17" rerouteNo="0" devices="tripinfo_R_15" vType="car9@R_15" speedFactor="0.93" vaporized=""/>
    <tripinfo id="R_13" depart="8.00" departLane="3_1" departPos="8.10" departSpeed="11.18" departDelay="0.00" arrival="80.50" arrivalLane="-2_0" arrivalPos="200.00" arrivalSpeed="11.18" duration="72.50" routeLength="397.06" waitingTime="0.00" waitingCount="0" stopTime="0.00" timeLoss="34.38" rerouteNo="0" devices="tripinfo_R_13" vType="car8@R_13" speedFactor="1.12" vaporized=""/>
    <tripinfo id="R_20" depart="15.00" departLane="4_1" departPos="7.10" departSpeed="11.18" departDelay="0.00" arrival="80.90" arrivalLane="-3_0" arrivalPos="200.00" arrivalSpeed="11.18" duration="65.90" routeLength="398.06" waitingTime="28.90" waitingCount="1" stopTime="0.00" timeLoss="27.38" rerouteNo="0" devices="tripinfo_R_20" vType="car7@R_20" speedFactor="1.02" vaporized=""/>
    <tripinfo id="S_8" depart="3.00" departLane="3_0" departPos="6.10" departSpeed="11.18" departDelay="0.00" arrival="81.10" arrivalLane="-1_0" arrivalPos="200.00" arrivalSpeed="11.18" duration="78.10" routeLength="416.30" waitingTime="0.00" waitingCount="0" stopTime="0.00" timeLoss="-22.87" rerouteNo="0" devices="tripinfo_S_8" vType="car6@S_8" speedFactor="0.94" vaporized=""/>
    <tripinfo id="S_17" depart="13.00" departLane="3_1" departPos="9.10" departSpeed="11.18" departDelay="0.00" arrival="81.20" arrivalLane="-1_2" arrivalPos="200.00" arrivalSpeed="11.18" duration="68.20" routeLength="413.30" waitingTime="30.20" waitingCount="1" stopTime="0.00" timeLoss="-4526.49" rerouteNo="0" devices="tripinfo_S_17" vType="car9@S_17" speedFactor="0.94" vaporized=""/>
    <tripinfo id="S_54" depart="40.00" departLane="3_2" departPos="6.10" departSpeed="11.18" departDelay="0.00" arrival="81.20" arrivalLane="-1_1" arrivalPos="200.00" arrivalSpeed="11.18" duration="41.20" routeLength="416.30" waitingTime="0.00" waitingCount="0" stopTime="0.00" timeLoss="-0.46" rerouteNo="0" devices="tripinfo_S_54" vType="car6@S_54" speedFactor="1.00" vaporized=""/>
    <tripinfo id="S_0" depart="0.00" departLane="1_2" departPos="8.10" departSpeed="11.18" departDelay="0.00" arrival="81.40" arrivalLane="-3_2" arrivalPos="200.00" arrivalSpeed="11.18" duration="81.40" routeLength="414.30" waitingTime="43.00" waitingCount="1" stopTime="0.00" timeLoss="-4820.09" rerouteNo="0" devices="tripinfo_S_0" vType="car8@S_0" speedFactor="1.06" vaporized=""/>
    <tripinfo id="R_21" depart="17.00" departLane="3_0" departPos="5.10" departSpeed="11.18" departDelay="0.00" arrival="81.60" arrivalLane="-2_0" arrivalPos="200.00" arrivalSpeed="11.18" duration="64.60" routeLength="400.06" waitingTime="0.00" waitingCount="0" stopTime="0.00" timeLoss="25.99" rerouteNo="0" devices="tripinfo_R_21" vType="car5@R_21" speedFactor="1.01" vaporized=""/>
    <tripinfo id="R_32" depart="25.30" departLane="3_2" departPos="8.10" departSpeed="11.18" departDelay="2.30" arrival="82.40" arrivalLane="-2_0" arrivalPos="200.00" arrivalSpeed="11.18" duration="57.10" routeLength="397.06" waitingTime="0.00" waitingCount="0" stopTime="0.00" timeLoss="18.74" rerouteNo="0" devices="tripinfo_R_32" vType="car8@R_32" speedFactor="1.01" vaporized=""/>
    <tripinfo id="R_23" depart="19.00" departLane="2_0" departPos="5.10" departSpeed="11.18" departDelay="0.00" arrival="82.50" arrivalLane="-1_0" arrivalPos="200.00" arrivalSpeed="11.18" duration="63.50" routeLength="400.06" waitingTime="1.00" waitingCount="1" stopTime="0.00" timeLoss="-4635.10" rerouteNo="0" devices="tripinfo_R_23" vType="car5@R_23" speedFactor="0.89" vaporized=""/>
    <tripinfo id="R_11" depart="5.40" departLane="1_0" departPos="8.10" departSpeed="11.18" departDelay="0.40" arrival="83.00" arrivalLane="-4_0" arrivalPos="200.00" arrivalSpeed="11.18" duration="77.60" routeLength="397.06" waitingTime="0.00" waitingCount="0" stopTime="0.00" timeLoss="39.40" rerouteNo="0" devices="tripinfo_R_11" vType="car8@R_11" speedFactor="1.03" vaporized=""/>
    <tripinfo id="R_25" depart="20.30" departLane="2_0" departPos="7.10" departSpeed="11.18" departDelay="0.30" arrival="83.20" arrivalLane="-1_0" arrivalPos="200.00" arrivalSpeed="11.18" duration="62.90" routeLength="398.06" waitingTime="1.10" waitingCount="1" stopTime="0.00" timeLoss="24.46" rerouteNo="0" devices="tripinfo_R_25" vType="car7@R_25" speedFactor="0.87" vaporized=""/>
    <tripinfo id="L_3" depart="1.00" departLane="4_1" departPos="8.10" departSpeed="11.18" departDelay="0.00" arrival="83.30" arrivalLane="-1_1" arrivalPos="200.00" arrivalSpeed="11.18" duration="82.30" routeLength="416.34" waitingTime="43.50" waitingCount="1" stopTime="0.00" timeLoss="-4822.23" rerouteNo="0" devices="tripinfo_L_3" vType="car8@L_3" speedFactor="1.08" vaporized=""/>
    <tripinfo id="S_9" depart="4.00" departLane="1_0" departPos="9.10" departSpeed="11.18" departDelay="0.00" arrival="83.40" arrivalLane="-3_0" arrivalPos="200.00" arrivalSpeed="11.18" duration="79.40" routeLength="413.30" waitingTime="0.00" waitingCount="0" stopTime="0.00" timeLoss="-28.18" rerouteNo="0" devices="tripinfo_S_9" vType="car9@S_9" speedFactor="0.86" vaporized=""/>
    <tripinfo id="R_40" depart="29.00" departLane="3_1" departPos="6.10" departSpeed="11.18" departDelay="0.00" arrival="83.50" arrivalLane="-2_0" arrivalPos="200.00" arrivalSpeed="11.18" duration="54.50" routeLength="399.06" waitingTime="0.00" waitingCount="0" stopTime="0.00" timeLoss="15.91" rerouteNo="0" devices="tripinfo_R_40" vType="car6@R_40" speedFactor="1.03" vaporized=""/>
    <tripinfo id="R_34" depart="25.00" departLane="1_0" departPos="9.10" departSpeed="11.18" departDelay="0.00" arrival="84.10" arrivalLane="-4_0" arrivalPos="200.00" arrivalSpeed="11.18" duration="59.10" routeLength="396.06" waitingTime="0.00" waitingCount="0" stopTime="0.00" timeLoss="20.84" rerouteNo="0" devices="tripinfo_R_34" vType="car9@R_34" speedFactor="0.99" vaporized=""/>
    <tripinfo id="R_29" depart="22.00" departLane="2_1" departPos="9.10" departSpeed="11.18" departDelay="0.00" arrival="84.20" arrivalLane="-1_0" arrivalPos="200.00" arrivalSpeed="11.18" duration="62.20" routeLength="396.06" waitingTime="1.10" waitingCount="1" stopTime="0.00" timeLoss="23.87" rerouteNo="0" devices="tripinfo_R_29" vType="car9@R_29" speedFactor="0.93" vaporized=""/>
    <tripinfo id="R_46" depart="35.00" departLane="3_1" departPos="5.10" departSpeed="11.18" departDelay="0.00" arrival="84.40" arrivalLane="-2_0" arrivalPos="200.00" arrivalSpeed="11.18" duration="49.40" routeLength="400.06" waitingTime="0.00" waitingCount="0" stopTime="0.00" timeLoss="10.75" rerouteNo="0" devices="tripinfo_R_46" vType="car5@R_46" speedFactor="1.00" vaporized=""/>
    <tripinfo id="R_24" depart="19.00" departLane="4_0" departPos="8.10" departSpeed="11.18" departDelay="0.00" arrival="85.00" arrivalLane="-3_0" arrivalPos="200.00" arrivalSpeed="11.18" duration="66.00" routeLength="397.06" waitingTime="28.20" waitingCount="2" stopTime="0.00" timeLoss="-4673.55" rerouteNo="0" devices="tripinfo_R_24" vType="car8@R_24" speedFactor="0.83" vaporized=""/>
    <tripinfo id="L_5" depart="2.00" departLane="2_0" departPos="7.10" departSpeed="11.18" departDelay="0.00" arrival="85.10" arrivalLane="-3_2" arrivalPos="200.00" arrivalSpeed="11.18" duration="83.10" routeLength="412.45" waitingTime="0.00" waitingCount="0" stopTime="0.00" timeLoss="-28.72" rerouteNo="0" devices="tripinfo_L_5" vType="car7@L_5" speedFactor="0.83" vaporized=""/>
    <tripinfo id="R_51" depart="39.00" departLane="3_2" departPos="5.10" departSpeed="11.18" departDelay="0.00" arrival="85.20" arrivalLane="-2_0" arrivalPos="200.00" arrivalSpeed="11.18" duration="46.20" routeLength="400.06" waitingTime="0.00" waitingCount="0" stopTime="0.00" timeLoss="7.72" rerouteNo="0" devices="tripinfo_R_51" vType="car5@R_51" speedFactor="1.17" vaporized=""/>
    <tripinfo id="R_43" depart="33.00" departLane="1_2" departPos="5.10" departSpeed="11.18" departDelay="0.00" arrival="85.30" arrivalLane="-4_0" arrivalPos="200.00" arrivalSpeed="11.18" duration="52.30" routeLength="400.06" waitingTime="0.00" waitingCount="0" stopTime="0.00" timeLoss="13.69" rerouteNo="0" devices="tripinfo_R_43" vType="car5@R_43" speedFactor="1.04" vaporized=""/>
    <tripinfo id="R_36" depart="27.00" departLane="2_2" departPos="9.10" departSpeed="11.18" departDelay="0.00" arrival="85.40" arrivalLane="-1_0" arrivalPos="200.00" arrivalSpeed="11.18" duration="58.40" routeLength="396.06" waitingTime="1.10" waitingCount="1" stopTime="0.00" timeLoss="20.03" rerouteNo="0" devices="tripinfo_R_36" vType="car9@R_36" speedFactor="0.97" vaporized=""/>
    <tripinfo id="R_37" depart="27.00" departLane="4_2" departPos="9.10" departSpeed="11.18" departDelay="0.00" arrival="86.00" arrivalLane="-3_0" arrivalPos="200.00" arrivalSpeed="11.18" duration="59.00" routeLength="396.06" waitingTime="21.40" waitingCount="2" stopTime="0.00" timeLoss="20.94" rerouteNo="0" devices="tripinfo_R_37" vType="car9@R_37" speedFactor="1.18" vaporized=""/>
    <tripinfo id="S_7" depart="3.00" departLane="2_1" departPos="7.10" departSpeed="11.18" departDelay="0.00" arrival="86.10" arrivalLane="-4_2" arrivalPos="200.00" arrivalSpeed="11.18" duration="83.10" routeLength="415.30" waitingTime="0.00" waitingCount="0" stopTime="0.00" timeLoss="45.86" rerouteNo="0" devices="tripinfo_S_7" vType="car7@S_7" speedFactor="0.89" vaporized=""/>
    <tripinfo id="S_10" depart="4.00" departLane="4_2" departPos="9.10" departSpeed="11.18" departDelay="0.00" arrival="86.10" arrivalLane="-2_2" arrivalPos="200.00" arrivalSpeed="11.18" duration="82.10" routeLength="413.30" waitingTime="43.80" waitingCount="1" stopTime="0.00" timeLoss="-4931.75" rerouteNo="0" devices="tripinfo_S_10" vType="car9@S_10" speedFactor="1.09" vaporized=""/>
    <tripinfo id="R_39" depart="29.00" departLane="2_0" departPos="8.10" departSpeed="11.18" departDelay="0.00" arrival="86.60" arrivalLane="-1_0" arrivalPos="200.00" arrivalSpeed="11.18" duration="57.60" routeLength="397.06" waitingTime="1.10" waitingCount="1" stopTime="0.00" timeLoss="19.06" rerouteNo="0" devices="tripinfo_R_39" vType="car8@R_39" speedFactor="0.90" vaporized=""/>
    <tripinfo id="L_2" depart="1.00" departLane="1_0" departPos="9.10" departSpeed="11.18" departDelay="0.00" arrival="87.50" arrivalLane="-2_2" arrivalPos="200.00" arrivalSpeed="11.18" duration="86.50" routeLength="410.45" waitingTime="44.10" waitingCount="2" stopTime="0.00" timeLoss="-4548.70" rerouteNo="0" devices="tripinfo_L_2" vType="car9@L_2" speedFactor="1.01" vaporized=""/>
    <tripinfo id="R_41" depart="30.20" departLane="2_0" departPos="6.10" departSpeed="11.18" departDelay="0.20" arrival="87.70" arrivalLane="-1_0" arrivalPos="200.00" arrivalSpeed="11.18" duration="57.50" routeLength="399.06" waitingTime="1.10" waitingCount="1" stopTime="0.00" timeLoss="18.89" rerouteNo="0" devices="tripinfo_R_41" vType="car6@R_41" speedFactor="0.96" vaporized=""/>
    <tripinfo id="S_61" depart="44.00" departLane="4_0" departPos="6.10" departSpeed="11.18" departDelay="0.00" arrival="88.70" arrivalLane="-2_0" arrivalPos="200.00" arrivalSpeed="11.18" duration="44.70" routeLength="416.30" waitingTime="5.20" waitingCount="2" stopTime="0.00" timeLoss="7.21" rerouteNo="0" devices="tripinfo_S_61" vType="car6@S_61" speedFactor="1.12" vaporized=""/>
    <tripinfo id="S_66" depart="50.00" departLane="4_2" departPos="5.10" departSpeed="11.18" departDelay="0.00" arrival="89.50" arrivalLane="-2_0" arrivalPos="200.00" arrivalSpeed="11.18" duration="39.50" routeLength="417.30" waitingTime="0.80" waitingCount="1" stopTime="0.00" timeLoss="2.17" rerouteNo="0" devices="tripinfo_S_66" vType="car5@S_66" speedFactor="0.91" vaporized=""/>
    <tripinfo id="L_6" depart="3.20" departLane="1_1" departPos="5.10" departSpeed="11.18" departDelay="0.20" arrival="89.70" arrivalLane="-2_1" arrivalPos="200.00" arrivalSpeed="11.18" duration="86.50" routeLength="419.34" waitingTime="0.00" waitingCount="0" stopTime="0.00" timeLoss="-18.59" rerouteNo="0" devices="tripinfo_L_6" vType="car5@L_6" speedFactor="1.05" vaporized=""/>
    <tripinfo id="S_33" depart="24.00" departLane="1_1" departPos="6.10" departSpeed="11.18" departDelay="0.00" arrival="90.00" arrivalLane="-3_1" arrivalPos="200.00" arrivalSpeed="11.18" duration="66.00" routeLength="416.30" waitingTime="0.00" waitingCount="0" stopTime="0.00" timeLoss="28.73" rerouteNo="0" devices="tripinfo_S_33" vType="car6@S_33" speedFactor="1.17" vaporized=""/>
    <tripinfo id="L_4" depart="2.00" departLane="1_2" departPos="9.10" departSpeed="11.18" departDelay="0.00" arrival="90.90" arrivalLane="-2_2" arrivalPos="200.00" arrivalSpeed="11.18" duration="88.90" routeLength="410.45" waitingTime="44.40" waitingCount="3" stopTime="0.00" timeLoss="-4733.38" rerouteNo="0" devices="tripinfo_L_4" vType="car9@L_4" speedFactor="1.03" vaporized=""/>
    <tripinfo id="L_12" depart="8.00" departLane="1_0" departPos="8.10" departSpeed="11.18" departDelay="0.00" arrival="92.10" arrivalLane="-2_2" arrivalPos="200.00" arrivalSpeed="11.18" duration="84.10" routeLength="411.45" waitingTime="43.50" waitingCount="3" stopTime="0.00" timeLoss="44.79" rerouteNo="0" devices="tripinfo_L_12" vType="car8@L_12" speedFactor="1.05" vaporized=""/>
    <tripinfo id="S_69" depart="52.00" departLane="4_0" departPos="9.10" departSpeed="11.18" departDelay="0.00" arrival="92.10" arrivalLane="-2_1" arrivalPos="200.00" arrivalSpeed="11.18" duration="40.10" routeLength="413.30" waitingTime="0.00" waitingCount="0" stopTime="0.00" timeLoss="-0.37" rerouteNo="0" devices="tripinfo_S_69" vType="car9@S_69" speedFactor="1.02" vaporized=""/>
    <tripinfo id="L_14" depart="10.00" departLane="4_0" departPos="8.10" departSpeed="11.18" departDelay="0.00" arrival="92.70" arrivalLane="-1_2" arrivalPos="200.00" arrivalSpeed="11.18" duration="82.70" routeLength="411.45" waitingTime="43.60" waitingCount="2" stopTime="0.00" timeLoss="-4505.74" rerouteNo="0" devices="tripinfo_L_14" vType="car8@L_14" speedFactor="0.99" vaporized=""/>
    <tripinfo id="R_73" depart="57.00" departLane="4_1" departPos="5.10" departSpeed="11.18" departDelay="0.00" arrival="92.90" arrivalLane="-3_0" arrivalPos="200.00" arrivalSpeed="11.18" duration="35.90" routeLength="400.06" waitingTime="0.00" waitingCount="0" stopTime="0.00" timeLoss="-2.55" rerouteNo="0" devices="tripinfo_R_73" vType="car5@R_73" speedFactor="1.06" vaporized=""/>
    <tripinfo id="S_16" depart="12.00" departLane="4_1" departPos="9.10" departSpeed="11.18" departDelay="0.00" arrival="93.80" arrivalLane="-2_2" arrivalPos="200.00" arrivalSpeed="11.18" duration="81.80" routeLength="413.30" waitingTime="42.70" waitingCount="2" stopTime="0.00" timeLoss="44.69" rerouteNo="0" devices="tripinfo_S_16" vType="car9@S_16" speedFactor="0.88" vaporized=""/>
    <tripinfo id="L_18" depart="13.50" departLane="4_2" departPos="9.10" departSpeed="11.18" departDelay="0.50" arrival="94.90" arrivalLane="-1_2" arrivalPos="200.00" arrivalSpeed="11.18" duration="81.40" routeLength="410.45" waitingTime="41.90" waitingCount="3" stopTime="0.00" timeLoss="41.97" rerouteNo="0" devices="tripinfo_L_18" vType="car9@L_18" speedFactor="0.94" vaporized=""/>
    <tripinfo id="L_19" depart="15.00" departLane="3_2" departPos="7.10" departSpeed="11.18" departDelay="0.00" arrival="95.60" arrivalLane="-4_2" arrivalPos="200.00" arrivalSpeed="11.18" duration="80.60" routeLength="412.45" waitingTime="41.50" waitingCount="2" stopTime="0.00" timeLoss="-4669.94" rerouteNo="0" devices="tripinfo_L_19" vType="car7@L_19" speedFactor="1.16" vaporized=""/>
    <tripinfo id="R_76" depart="60.00" departLane="3_1" departPos="7.10" departSpeed="11.18" departDelay="0.00" arrival="95.70" arrivalLane="-2_0" arrivalPos="200.00" arrivalSpeed="11.18" duration="35.70" routeLength="398.06" waitingTime="0.00" waitingCount="0" stopTime="0.00" timeLoss="-2.57" rerouteNo="0" devices="tripinfo_R_76" vType="car7@R_76" speedFactor="1.03" vaporized=""/>
    <tripinfo id="L_26" depart="20.00" departLane="3_0" departPos="8.10" departSpeed="11.18" departDelay="0.00" arrival="96.50" arrivalLane="-4_2" arrivalPos="200.00" arrivalSpeed="11.18" duration="76.50" routeLength="411.45" waitingTime="37.50" waitingCount="2" stopTime="0.00" timeLoss="37.02" rerouteNo="0" devices="tripinfo_L_26" vType="car8@L_26" speedFactor="0.92" vaporized=""/>
    <tripinfo id="R_79" depart="61.00" departLane="4_1" departPos="9.10" departSpeed="11.18" departDelay="0.00" arrival="96.50" arrivalLane="-3_0" arrivalPos="200.00" arrivalSpeed="11.18" duration="35.50" routeLength="396.06" waitingTime="0.00" waitingCount="0" stopTime="0.00" timeLoss="-2.60" rerouteNo="0" devices="tripinfo_R_79" vType="car9@R_79" speedFactor="1.09" vaporized=""/>
    <tripinfo id="R_78" depart="61.00" departLane="3_1" departPos="5.10" departSpeed="11.18" departDelay="0.00" arrival="97.30" arrivalLane="-2_0" arrivalPos="200.00" arrivalSpeed="11.18" duration="36.30" routeLength="400.06" waitingTime="0.00" waitingCount="0" stopTime="0.00" timeLoss="-2.23" rerouteNo="0" devices="tripinfo_R_78" vType="car5@R_78" speedFactor="1.01" vaporized=""/>
    <tripinfo id="L_22" depart="19.00" departLane="1_2" departPos="8.10" departSpeed="11.18" departDelay="0.00" arrival="97.60" arrivalLane="-2_2" arrivalPos="200.00" arrivalSpeed="11.18" duration="78.60" routeLength="411.45" waitingTime="37.70" waitingCount="4" stopTime="0.00" timeLoss="-4451.53" rerouteNo="0" devices="tripinfo_L_22" vType="car8@L_22" speedFactor="0.98" vaporized=""/>
    <tripinfo id="L_28" depart="21.00" departLane="4_0" departPos="9.10" departSpeed="11.18" departDelay="0.00" arrival="99.20" arrivalLane="-1_2" arrivalPos="200.00" arrivalSpeed="11.18" duration="78.20" routeLength="410.45" waitingTime="38.30" waitingCount="3" stopTime="0.00" timeLoss="-4123.52" rerouteNo="0" devices="tripinfo_L_28" vType="car9@L_28" speedFactor="1.13" vaporized=""/>
    <tripinfo id="L_30" depart="22.00" departLane="3_0" departPos="5.10" departSpeed="11.18" departDelay="0.00" arrival="99.80" arrivalLane="-4_2" arrivalPos="200.00" arrivalSpeed="11.18" duration="77.80" routeLength="414.45" waitingTime="37.70" waitingCount="3" stopTime="0.00" timeLoss="-4831.26" rerouteNo="0" devices="tripinfo_L_30" vType="car5@L_30" speedFactor="1.18" vaporized=""/>
    <tripinfo id="L_27" depart="21.00" departLane="3_1" departPos="7.10" departSpeed="11.18" departDelay="0.00" arrival="100.60" arrivalLane="-4_2" arrivalPos="200.00" arrivalSpeed="11.18" duration="79.60" routeLength="412.45" waitingTime="36.00" waitingCount="3" stopTime="0.00" timeLoss="40.03" rerouteNo="0" devices="tripinfo_L_27" vType="car7@L_27" speedFactor="0.95" vaporized=""/>
    <tripinfo id="R_82" depart="65.00" departLane="4_2" departPos="8.10" departSpeed="11.18" departDelay="0.00" arrival="100.60" arrivalLane="-3_0" arrivalPos="200.00" arrivalSpeed="11.18" duration="35.60" routeLength="397.06" waitingTime="0.00" waitingCount="0" stopTime="0.00" timeLoss="-2.59" rerouteNo="0" devices="tripinfo_R_82" vType="car8@R_82" speedFactor="1.02" vaporized=""/>
    <tripinfo id="S_31" depart="23.00" departLane="1_2" departPos="8.10" departSpeed="11.18" departDelay="0.00" arrival="101.80" arrivalLane="-3_2" arrivalPos="200.00" arrivalSpeed="11.18" duration="78.80" routeLength="414.30" waitingTime="37.00" waitingCount="5" stopTime="0.00" timeLoss="-4669.05" rerouteNo="0" devices="tripinfo_S_31" vType="car8@S_31" speedFactor="1.15" vaporized=""/>
    <tripinfo id="R_85" depart="67.00" departLane="4_2" departPos="9.10" departSpeed="11.18" departDelay="0.00" arrival="102.50" arrivalLane="-3_0" arrivalPos="200.00" arrivalSpeed="11.18" duration="35.50" routeLength="396.06" waitingTime="0.00" waitingCount="0" stopTime="0.00" timeLoss="-2.72" rerouteNo="0" devices="tripinfo_R_85" vType="car9@R_85" speedFactor="0.98" vaporized=""/>
    <tripinfo id="R_62" depart="49.00" departLane="1_0" departPos="6.10" departSpeed="11.18" departDelay="0.00" arrival="102.60" arrivalLane="-4_0" arrivalPos="200.00" arrivalSpeed="11.18" duration="53.60" routeLength="399.06" waitingTime="14.90" waitingCount="1" stopTime="0.00" timeLoss="15.23" rerouteNo="0" devices="tripinfo_R_62" vType="car6@R_62" speedFactor="1.02" vaporized=""/>
    <tripinfo id="L_35" depart="27.00" departLane="1_0" departPos="9.10" departSpeed="11.18" departDelay="0.00" arrival="102.70" arrivalLane="-2_2" arrivalPos="200.00" arrivalSpeed="11.18" duration="75.70" routeLength="410.45" waitingTime="34.20" waitingCount="5" stopTime="0.00" timeLoss="36.46" rerouteNo="0" devices="tripinfo_L_35" vType="car9@L_35" speedFactor="1.02" vaporized=""/>
    <tripinfo id="L_38" depart="29.00" departLane="1_2" departPos="7.10" departSpeed="11.18" departDelay="0.00" arrival="103.90" arrivalLane="-2_2" arrivalPos="200.00" arrivalSpeed="11.18" duration="74.90" routeLength="412.45" waitingTime="33.10" waitingCount="5" stopTime="0.00" timeLoss="35.47" rerouteNo="0" devices="tripinfo_L_38" vType="car7@L_38" speedFactor="1.10" vaporized=""/>
    <tripinfo id="R_80" depart="68.60" departLane="1_2" departPos="9.10" departSpeed="11.18" departDelay="6.60" arrival="104.10" arrivalLane="-4_0" arrivalPos="200.00" arrivalSpeed="11.18" duration="35.50" routeLength="396.06" waitingTime="0.00" waitingCount="0" stopTime="0.00" timeLoss="-2.65" rerouteNo="0" devices="tripinfo_R_80" vType="car9@R_80" speedFactor="1.03" vaporized=""/>
    <tripinfo id="L_53" depart="40.00" departLane="1_0" departPos="6.10" departSpeed="11.18" departDelay="0.00" arrival="104.20" arrivalLane="-2_0" arrivalPos="200.00" arrivalSpeed="11.18" duration="64.20" routeLength="423.16" waitingTime="14.80" waitingCount="1" stopTime="0.00" timeLoss="-4965.44" rerouteNo="0" devices="tripinfo_L_53" vType="car6@L_53" speedFactor="1.10" vaporized=""/>
    <tripinfo id="R_59" depart="43.00" departLane="2_0" departPos="8.10" departSpeed="11.18" departDelay="0.00" arrival="104.40" arrivalLane="-1_0" arrivalPos="200.00" arrivalSpeed="11.18" duration="61.40" routeLength="397.06" waitingTime="15.10" waitingCount="3" stopTime="0.00" timeLoss="23.13" rerouteNo="0" devices="tripinfo_R_59" vType="car8@R_59" speedFactor="0.97" vaporized=""/>
    <tripinfo id="R_68" depart="52.00" departLane="2_2" departPos="5.10" departSpeed="11.18" departDelay="0.00" arrival="105.50" arrivalLane="-1_0" arrivalPos="200.00" arrivalSpeed="11.18" duration="53.50" routeLength="400.06" waitingTime="15.10" waitingCount="2" stopTime="0.00" timeLoss="14.81" rerouteNo="0" devices="tripinfo_R_68" vType="car5@R_68" speedFactor="1.04" vaporized=""/>
    <tripinfo id="L_55" depart="41.00" departLane="2_0" departPos="7.10" departSpeed="11.18" departDelay="0.00" arrival="105.90" arrivalLane="-3_0" arrivalPos="200.00" arrivalSpeed="11.18" duration="64.90" routeLength="422.16" waitingTime="15.10" waitingCount="2" stopTime="0.00" timeLoss="-4920.56" rerouteNo="0" devices="tripinfo_L_55" vType="car7@L_55" speedFactor="1.00" vaporized=""/>
    <tripinfo id="R_70" depart="54.00" departLane="2_1" departPos="5.10" departSpeed="11.18" departDelay="0.00" arrival="106.30" arrivalLane="-1_0" arrivalPos="200.00" arrivalSpeed="11.18" duration="52.30" routeLength="400.06" waitingTime="14.10" waitingCount="1" stopTime="0.00" timeLoss="13.75" rerouteNo="0" devices="tripinfo_R_70" vType="car5@R_70" speedFactor="1.02" vaporized=""/>
    <tripinfo id="L_42" depart="31.00" departLane="2_2" departPos="9.10" departSpeed="11.18" departDelay="0.00" arrival="106.40" arrivalLane="-3_2" arrivalPos="200.00" arrivalSpeed="11.18" duration="75.40" routeLength="410.45" waitingTime="18.50" waitingCount="1" stopTime="0.00" timeLoss="-4611.51" rerouteNo="0" devices="tripinfo_L_42" vType="car9@L_42" speedFactor="1.09" vaporized=""/>
    <tripinfo id="R_87" depart="70.00" departLane="4_1" departPos="7.10" departSpeed="11.18" departDelay="0.00" arrival="107.40" arrivalLane="-3_0" arrivalPos="200.00" arrivalSpeed="11.18" duration="37.40" routeLength="398.06" waitingTime="0.00" waitingCount="0" stopTime="0.00" timeLoss="-2.62" rerouteNo="0" devices="tripinfo_R_87" vType="car7@R_87" speedFactor="1.04" vaporized=""/>
    <tripinfo id="L_44" depart="33.00" departLane="2_2" departPos="6.10" departSpeed="11.18" departDelay="0.00" arrival="107.50" arrivalLane="-3_2" arrivalPos="200.00" arrivalSpeed="11.18" duration="74.50" routeLength="413.45" waitingTime="18.60" waitingCount="1" stopTime="0.00" timeLoss="35.09" rerouteNo="0" devices="tripinfo_L_44" vType="car6@L_44" speedFactor="1.04" vaporized=""/>
    <tripinfo id="R_91" depart="72.00" departLane="2_0" departPos="7.10" departSpeed="11.18" departDelay="0.00" arrival="107.70" arrivalLane="-1_0" arrivalPos="200.00" arrivalSpeed="11.18" duration="35.70" routeLength="398.06" waitingTime="0.00" waitingCount="0" stopTime="0.00" timeLoss="-2.72" rerouteNo="0" devices="tripinfo_R_91" vType="car7@R_91" speedFactor="0.89" vaporized=""/>
    <tripinfo id="S_45" depart="34.00" departLane="4_2" departPos="8.10" departSpeed="11.18" departDelay="0.00" arrival="108.40" arrivalLane="-2_2" arrivalPos="200.00" arrivalSpeed="11.18" duration="74.40" routeLength="414.30" waitingTime="33.40" waitingCount="4" stopTime="0.00" timeLoss="-4801.32" rerouteNo="0" devices="tripinfo_S_45" vType="car8@S_45" speedFactor="1.09" vaporized=""/>
    <tripinfo id="L_47" depart="35.00" departLane="4_0" departPos="9.10" departSpeed="11.18" departDelay="0.00" arrival="109.30" arrivalLane="-1_2" arrivalPos="200.00" arrivalSpeed="11.18" duration="74.30" routeLength="410.45" waitingTime="31.20" waitingCount="4" stopTime="0.00" timeLoss="34.83" rerouteNo="0" devices="tripinfo_L_47" vType="car9@L_47" speedFactor="0.90" vaporized=""/>
    <tripinfo id="L_48" depart="37.00" departLane="4_0" departPos="6.10" departSpeed="11.18" departDelay="0.00" arrival="110.40" arrivalLane="-1_2" arrivalPos="200.00" arrivalSpeed="11.18" duration="73.40" routeLength="413.45" waitingTime="29.90" waitingCount="5" stopTime="0.00" timeLoss="33.59" rerouteNo="0" devices="tripinfo_L_48" vType="car6@L_48" speedFactor="0.88" vaporized=""/>
    <tripinfo id="L_50" depart="39.00" departLane="2_2" departPos="5.10" departSpeed="11.18" departDelay="0.00" arrival="110.60" arrivalLane="-3_2" arrivalPos="200.00" arrivalSpeed="11.18" duration="71.60" routeLength="414.45" waitingTime="20.00" waitingCount="2" stopTime="0.00" timeLoss="-4110.96" rerouteNo="0" devices="tripinfo_L_50" vType="car5@L_50" speedFactor="0.85" vaporized=""/>
    <tripinfo id="S_63" depart="49.00" departLane="2_1" departPos="5.10" departSpeed="11.18" departDelay="0.00" arrival="111.40" arrivalLane="-4_2" arrivalPos="200.00" arrivalSpeed="11.18" duration="62.40" routeLength="417.30" waitingTime="20.00" waitingCount="3" stopTime="0.00" timeLoss="25.04" rerouteNo="0" devices="tripinfo_S_63" vType="car5@S_63" speedFactor="0.99" vaporized=""/>
    <tripinfo id="R_96" depart="77.00" departLane="4_1" departPos="7.10" departSpeed="11.18" departDelay="0.00" arrival="112.70" arrivalLane="-3_0" arrivalPos="200.00" arrivalSpeed="11.18" duration="35.70" routeLength="398.06" waitingTime="0.00" waitingCount="0" stopTime="0.00" timeLoss="-2.59" rerouteNo="0" devices="tripinfo_R_96" vType="car7@R_96" speedFactor="1.01" vaporized=""/>
    <tripinfo id="L_49" depart="39.00" departLane="1_2" departPos="9.10" departSpeed="11.18" departDelay="0.00" arrival="112.90" arrivalLane="-2_2" arrivalPos="200.00" arrivalSpeed="11.18" duration="73.90" routeLength="410.45" waitingTime="31.40" waitingCount="6" stopTime="0.00" timeLoss="-4087.43" rerouteNo="0" devices="tripinfo_L_49" vType="car9@L_49" speedFactor="0.85" vaporized=""/>
    <tripinfo id="S_86" depart="70.00" departLane="1_0" departPos="5.10" departSpeed="11.18" departDelay="0.00" arrival="113.20" arrivalLane="-3_1" arrivalPos="200.00" arrivalSpeed="11.18" duration="43.20" routeLength="417.30" waitingTime="0.00" waitingCount="0" stopTime="0.00" timeLoss="-0.90" rerouteNo="0" devices="tripinfo_S_86" vType="car5@S_86" speedFactor="1.00" vaporized=""/>