<?xml version="1.0" encoding="UTF-8"?>

<!-- generated on 03/20/20 21:00:46 by Eclipse SUMO GUI Version 1.3.1
<configuration xmlns:xsi="http://www.w3.org/2001/XMLSchema-instance" xsi:noNamespaceSchemaLocation="http://sumo.dlr.de/xsd/sumoConfiguration.xsd">

    <input>
        <net-file value="data/lane3.net.xml"/>
        <route-files value="data/icacc+.rou.xml"/>
        <additional-files value="data/icacc+.det.xml"/>
    </input>

    <output>
        <tripinfo-output value="tripinfo.xml"/>
    </output>

    <time>
        <begin value="0"/>
        <step-length value="0.1"/>
    </time>

    <processing>
        <collision.mingap-factor value="0"/>
    </processing>

    <report>
        <verbose value="true"/>
        <no-step-log value="true"/>
    </report>

    <traci_server>
        <remote-port value="8846"/>
    </traci_server>

    <gui_only>
        <quit-on-end value="true"/>
        <start value="true"/>
        <tracker-interval value="0.1"/>
    </gui_only>

</configuration>
-->

<tripinfos xmlns:xsi="http://www.w3.org/2001/XMLSchema-instance" xsi:noNamespaceSchemaLocation="http://sumo.dlr.de/xsd/tripinfo_file.xsd">
    <tripinfo id="R_1" depart="2.00" departLane="4_1" departPos="8.10" departSpeed="0.00" departDelay="0.00" arrival="37.60" arrivalLane="-3_0" arrivalPos="200.00" arrivalSpeed="11.18" duration="35.60" routeLength="397.06" waitingTime="0.00" waitingCount="0" stopTime="0.00" timeLoss="-0.53" rerouteNo="0" devices="tripinfo_R_1" vType="car8@R_1" speedFactor="0.94" vaporized=""/>
    <tripinfo id="S_0" depart="2.00" departLane="1_0" departPos="9.10" departSpeed="0.00" departDelay="0.00" arrival="39.00" arrivalLane="-3_2" arrivalPos="200.00" arrivalSpeed="11.18" duration="37.00" routeLength="413.30" waitingTime="0.00" waitingCount="0" stopTime="0.00" timeLoss="0.01" rerouteNo="0" devices="tripinfo_S_0" vType="car9@S_0" speedFactor="1.06" vaporized=""/>
    <tripinfo id="L_2" depart="3.00" departLane="4_0" departPos="7.10" departSpeed="0.00" departDelay="0.00" arrival="40.60" arrivalLane="-1_2" arrivalPos="200.00" arrivalSpeed="11.18" duration="37.60" routeLength="412.45" waitingTime="0.00" waitingCount="0" stopTime="0.00" timeLoss="0.34" rerouteNo="0" devices="tripinfo_L_2" vType="car7@L_2" speedFactor="1.01" vaporized=""/>
    <tripinfo id="L_3" depart="5.00" departLane="1_0" departPos="7.10" departSpeed="0.00" departDelay="0.00" arrival="42.80" arrivalLane="-2_2" arrivalPos="200.00" arrivalSpeed="11.18" duration="37.80" routeLength="412.45" waitingTime="0.00" waitingCount="0" stopTime="0.00" timeLoss="0.02" rerouteNo="0" devices="tripinfo_L_3" vType="car7@L_3" speedFactor="1.08" vaporized=""/>
    <tripinfo id="L_4" depart="6.00" departLane="4_2" departPos="7.10" departSpeed="0.00" departDelay="0.00" arrival="45.50" arrivalLane="-1_2" arrivalPos="200.00" arrivalSpeed="11.18" duration="39.50" routeLength="412.45" waitingTime="0.00" waitingCount="0" stopTime="0.00" timeLoss="2.28" rerouteNo="0" devices="tripinfo_L_4" vType="car7@L_4" speedFactor="1.03" vaporized=""/>
    <tripinfo id="L_5" depart="11.00" departLane="3_0" departPos="8.10" departSpeed="0.00" departDelay="0.00" arrival="48.10" arrivalLane="-4_2" arrivalPos="200.00" arrivalSpeed="11.18" duration="37.10" routeLength="411.45" waitingTime="0.00" waitingCount="0" stopTime="0.00" timeLoss="-0.57" rerouteNo="0" devices="tripinfo_L_5" vType="car8@L_5" speedFactor="0.83" vaporized=""/>
    <tripinfo id="L_6" depart="14.00" departLane="4_0" departPos="8.10" departSpeed="0.00" departDelay="0.00" arrival="52.10" arrivalLane="-1_2" arrivalPos="200.00" arrivalSpeed="11.18" duration="38.10" routeLength="411.45" waitingTime="0.00" waitingCount="0" stopTime="0.00" timeLoss="1.01" rerouteNo="0" devices="tripinfo_L_6" vType="car8@L_6" speedFactor="1.05" vaporized=""/>
    <tripinfo id="S_7" depart="19.00" departLane="2_2" departPos="9.10" departSpeed="0.00" departDelay="0.00" arrival="56.00" arrivalLane="-4_2" arrivalPos="200.00" arrivalSpeed="11.18" duration="37.00" routeLength="413.30" waitingTime="0.00" waitingCount="0" stopTime="0.00" timeLoss="0.01" rerouteNo="0" devices="tripinfo_S_7" vType="car9@S_7" speedFactor="0.89" vaporized=""/>
    <tripinfo id="S_8" depart="21.00" departLane="1_2" departPos="7.10" departSpeed="0.00" departDelay="0.00" arrival="59.00" arrivalLane="-3_2" arrivalPos="200.00" arrivalSpeed="11.18" duration="38.00" routeLength="415.30" waitingTime="0.00" waitingCount="0" stopTime="0.00" timeLoss="0.80" rerouteNo="0" devices="tripinfo_S_8" vType="car7@S_8" speedFactor="0.94" vaporized=""/>
    <tripinfo id="S_9" depart="23.00" departLane="3_0" departPos="5.10" departSpeed="0.00" departDelay="0.00" arrival="60.40" arrivalLane="-1_2" arrivalPos="200.00" arrivalSpeed="11.18" duration="37.40" routeLength="417.30" waitingTime="0.00" waitingCount="0" stopTime="0.00" timeLoss="0.01" rerouteNo="0" devices="tripinfo_S_9" vType="car5@S_9" speedFactor="0.86" vaporized=""/>
    <tripinfo id="S_10" depart="25.00" departLane="4_0" departPos="5.10" departSpeed="0.00" departDelay="0.00" arrival="62.40" arrivalLane="-2_0" arrivalPos="200.00" arrivalSpeed="11.18" duration="37.40" routeLength="417.30" waitingTime="0.00" waitingCount="0" stopTime="0.00" timeLoss="0.01" rerouteNo="0" devices="tripinfo_S_10" vType="car5@S_10" speedFactor="1.09" vaporized=""/>
    <tripinfo id="R_11" depart="27.00" departLane="2_0" departPos="7.10" departSpeed="0.00" departDelay="0.00" arrival="62.70" arrivalLane="-1_0" arrivalPos="200.00" arrivalSpeed="11.18" duration="35.70" routeLength="398.06" waitingTime="0.00" waitingCount="0" stopTime="0.00" timeLoss="-0.44" rerouteNo="0" devices="tripinfo_R_11" vType="car7@R_11" speedFactor="1.03" vaporized=""/>
    <tripinfo id="L_12" depart="29.00" departLane="1_1" departPos="7.10" departSpeed="0.00" departDelay="0.00" arrival="66.20" arrivalLane="-2_2" arrivalPos="200.00" arrivalSpeed="11.18" duration="37.20" routeLength="412.45" waitingTime="0.00" waitingCount="0" stopTime="0.00" timeLoss="-0.04" rerouteNo="0" devices="tripinfo_L_12" vType="car7@L_12" speedFactor="1.05" vaporized=""/>
    <tripinfo id="R_13" depart="31.00" departLane="1_0" departPos="5.10" departSpeed="0.00" departDelay="0.00" arrival="66.90" arrivalLane="-4_0" arrivalPos="200.00" arrivalSpeed="11.18" duration="35.90" routeLength="400.06" waitingTime="0.00" waitingCount="0" stopTime="0.00" timeLoss="-0.36" rerouteNo="0" devices="tripinfo_R_13" vType="car5@R_13" speedFactor="1.12" vaporized=""/>
    <tripinfo id="L_14" depart="35.00" departLane="1_0" departPos="9.10" departSpeed="0.00" departDelay="0.00" arrival="72.20" arrivalLane="-2_2" arrivalPos="200.00" arrivalSpeed="11.18" duration="37.20" routeLength="410.45" waitingTime="0.00" waitingCount="0" stopTime="0.00" timeLoss="0.10" rerouteNo="0" devices="tripinfo_L_14" vType="car9@L_14" speedFactor="0.99" vaporized=""/>
    <tripinfo id="R_15" depart="37.00" departLane="2_2" departPos="5.10" departSpeed="0.00" departDelay="0.00" arrival="72.90" arrivalLane="-1_0" arrivalPos="200.00" arrivalSpeed="11.18" duration="35.90" routeLength="400.06" waitingTime="0.00" waitingCount="0" stopTime="0.00" timeLoss="-0.54" rerouteNo="0" devices="tripinfo_R_15" vType="car5@R_15" speedFactor="0.93" vaporized=""/>
    <tripinfo id="S_16" depart="42.00" departLane="4_0" departPos="6.10" departSpeed="0.00" departDelay="0.00" arrival="80.60" arrivalLane="-2_2" arrivalPos="200.00" arrivalSpeed="11.18" duration="38.60" routeLength="416.30" waitingTime="0.00" waitingCount="0" stopTime="0.00" timeLoss="1.34" rerouteNo="0" devices="tripinfo_S_16" vType="car6@S_16" speedFactor="0.88" vaporized=""/>
    <tripinfo id="S_17" depart="46.00" departLane="3_0" departPos="9.10" departSpeed="0.00" departDelay="0.00" arrival="83.00" arrivalLane="-1_2" arrivalPos="200.00" arrivalSpeed="11.18" duration="37.00" routeLength="413.30" waitingTime="0.00" waitingCount="0" stopTime="0.00" timeLoss="0.01" rerouteNo="0" devices="tripinfo_S_17" vType="car9@S_17" speedFactor="0.94" vaporized=""/>
    <tripinfo id="L_18" depart="50.00" departLane="2_0" departPos="9.10" departSpeed="0.00" departDelay="0.00" arrival="87.50" arrivalLane="-3_2" arrivalPos="200.00" arrivalSpeed="11.18" duration="37.50" routeLength="410.45" waitingTime="0.00" waitingCount="0" stopTime="0.00" timeLoss="0.26" rerouteNo="0" devices="tripinfo_L_18" vType="car9@L_18" speedFactor="0.94" vaporized=""/>
    <tripinfo id="L_19" depart="52.00" departLane="3_0" departPos="9.10" departSpeed="0.00" departDelay="0.00" arrival="89.90" arrivalLane="-4_2" arrivalPos="200.00" arrivalSpeed="11.18" duration="37.90" routeLength="410.45" waitingTime="0.00" waitingCount="0" stopTime="0.00" timeLoss="0.13" rerouteNo="0" devices="tripinfo_L_19" vType="car9@L_19" speedFactor="1.16" vaporized=""/>
    <tripinfo id="R_21" depart="55.00" departLane="1_0" departPos="9.10" departSpeed="0.00" departDelay="0.00" arrival="90.50" arrivalLane="-4_0" arrivalPos="200.00" arrivalSpeed="11.18" duration="35.50" routeLength="396.06" waitingTime="0.00" waitingCount="0" stopTime="0.00" timeLoss="-0.55" rerouteNo="0" devices="tripinfo_R_21" vType="car9@R_21" speedFactor="1.01" vaporized=""/>
    <tripinfo id="R_20" depart="54.00" departLane="2_2" departPos="5.10" departSpeed="0.00" departDelay="0.00" arrival="90.70" arrivalLane="-1_0" arrivalPos="200.00" arrivalSpeed="11.18" duration="36.70" routeLength="400.06" waitingTime="0.00" waitingCount="0" stopTime="0.00" timeLoss="0.35" rerouteNo="0" devices="tripinfo_R_20" vType="car5@R_20" speedFactor="1.02" vaporized=""/>
    <tripinfo id="L_22" depart="59.00" departLane="1_0" departPos="9.10" departSpeed="0.00" departDelay="0.00" arrival="96.30" arrivalLane="-2_2" arrivalPos="200.00" arrivalSpeed="11.18" duration="37.30" routeLength="410.45" waitingTime="0.00" waitingCount="0" stopTime="0.00" timeLoss="0.17" rerouteNo="0" devices="tripinfo_L_22" vType="car9@L_22" speedFactor="0.98" vaporized=""/>
    <tripinfo id="R_23" depart="60.00" departLane="2_2" departPos="9.10" departSpeed="0.00" departDelay="0.00" arrival="96.70" arrivalLane="-1_0" arrivalPos="200.00" arrivalSpeed="11.18" duration="36.70" routeLength="396.06" waitingTime="0.00" waitingCount="0" stopTime="0.00" timeLoss="0.56" rerouteNo="0" devices="tripinfo_R_23" vType="car9@R_23" speedFactor="0.89" vaporized=""/>
    <tripinfo id="R_24" depart="63.00" departLane="3_0" departPos="9.10" departSpeed="0.00" departDelay="0.00" arrival="98.50" arrivalLane="-2_0" arrivalPos="200.00" arrivalSpeed="11.18" duration="35.50" routeLength="396.06" waitingTime="0.00" waitingCount="0" stopTime="0.00" timeLoss="-0.81" rerouteNo="0" devices="tripinfo_R_24" vType="car9@R_24" speedFactor="0.83" vaporized=""/>
    <tripinfo id="R_25" depart="67.00" departLane="4_0" departPos="5.10" departSpeed="0.00" departDelay="0.00" arrival="102.90" arrivalLane="-3_0" arrivalPos="200.00" arrivalSpeed="11.18" duration="35.90" routeLength="400.06" waitingTime="0.00" waitingCount="0" stopTime="0.00" timeLoss="-0.61" rerouteNo="0" devices="tripinfo_R_25" vType="car5@R_25" speedFactor="0.87" vaporized=""/>
    <tripinfo id="L_26" depart="68.00" departLane="2_0" departPos="8.10" departSpeed="0.00" departDelay="0.00" arrival="105.30" arrivalLane="-3_2" arrivalPos="200.00" arrivalSpeed="11.18" duration="37.30" routeLength="411.45" waitingTime="0.00" waitingCount="0" stopTime="0.00" timeLoss="-0.11" rerouteNo="0" devices="tripinfo_L_26" vType="car8@L_26" speedFactor="0.92" vaporized=""/>
    <tripinfo id="L_27" depart="70.00" departLane="2_2" departPos="5.10" departSpeed="0.00" departDelay="0.00" arrival="109.70" arrivalLane="-3_2" arrivalPos="200.00" arrivalSpeed="11.18" duration="39.70" routeLength="414.45" waitingTime="0.00" waitingCount="0" stopTime="0.00" timeLoss="2.08" rerouteNo="0" devices="tripinfo_L_27" vType="car5@L_27" speedFactor="0.95" vaporized=""/>
    <tripinfo id="L_28" depart="73.00" departLane="2_0" departPos="9.10" departSpeed="0.00" departDelay="0.00" arrival="111.40" arrivalLane="-3_2" arrivalPos="200.00" arrivalSpeed="11.18" duration="38.40" routeLength="410.45" waitingTime="0.00" waitingCount="0" stopTime="0.00" timeLoss="1.55" rerouteNo="0" devices="tripinfo_L_28" vType="car9@L_28" speedFactor="1.13" vaporized=""/>
    <tripinfo id="R_29" depart="76.00" departLane="2_2" departPos="9.10" departSpeed="0.00" departDelay="0.00" arrival="111.60" arrivalLane="-1_0" arrivalPos="200.00" arrivalSpeed="11.18" duration="35.60" routeLength="396.06" waitingTime="0.00" waitingCount="0" stopTime="0.00" timeLoss="-0.45" rerouteNo="0" devices="tripinfo_R_29" vType="car9@R_29" speedFactor="0.93" vaporized=""/>
    <tripinfo id="L_30" depart="78.00" departLane="2_1" departPos="7.10" departSpeed="0.00" departDelay="0.00" arrival="115.20" arrivalLane="-3_2" arrivalPos="200.00" arrivalSpeed="11.18" duration="37.20" routeLength="412.45" waitingTime="0.00" waitingCount="0" stopTime="0.00" timeLoss="0.19" rerouteNo="0" devices="tripinfo_L_30" vType="car7@L_30" speedFactor="1.18" vaporized=""/>
    <tripinfo id="S_31" depart="78.00" departLane="4_1" departPos="5.10" departSpeed="0.00" departDelay="0.00" arrival="115.70" arrivalLane="-2_2" arrivalPos="200.00" arrivalSpeed="11.18" duration="37.70" routeLength="417.30" waitingTime="0.00" waitingCount="0" stopTime="0.00" timeLoss="0.00" rerouteNo="0" devices="tripinfo_S_31" vType="car5@S_31" speedFactor="1.15" vaporized=""/>
    <tripinfo id="R_32" depart="80.00" departLane="4_1" departPos="7.10" departSpeed="0.00" departDelay="0.00" arrival="115.70" arrivalLane="-3_0" arrivalPos="200.00" arrivalSpeed="11.18" duration="35.70" routeLength="398.06" waitingTime="0.00" waitingCount="0" stopTime="0.00" timeLoss="-0.46" rerouteNo="0" devices="tripinfo_R_32" vType="car7@R_32" speedFactor="1.01" vaporized=""/>
    <tripinfo id="S_33" depart="84.00" departLane="3_0" departPos="7.10" departSpeed="0.00" departDelay="0.00" arrival="121.20" arrivalLane="-1_2" arrivalPos="200.00" arrivalSpeed="11.18" duration="37.20" routeLength="415.30" waitingTime="0.00" waitingCount="0" stopTime="0.00" timeLoss="0.01" rerouteNo="0" devices="tripinfo_S_33" vType="car7@S_33" speedFactor="1.17" vaporized=""/>
    <tripinfo id="R_34" depart="89.00" departLane="4_2" departPos="8.10" departSpeed="0.00" departDelay="0.00" arrival="125.60" arrivalLane="-3_0" arrivalPos="200.00" arrivalSpeed="11.18" duration="36.60" routeLength="397.06" waitingTime="0.00" waitingCount="0" stopTime="0.00" timeLoss="0.35" rerouteNo="0" devices="tripinfo_R_34" vType="car8@R_34" speedFactor="0.99" vaporized=""/>
    <tripinfo id="L_35" depart="91.00" departLane="1_2" departPos="9.10" departSpeed="0.00" departDelay="0.00" arrival="128.00" arrivalLane="-2_2" arrivalPos="200.00" arrivalSpeed="11.18" duration="37.00" routeLength="410.45" waitingTime="0.00" waitingCount="0" stopTime="0.00" timeLoss="-0.09" rerouteNo="0" devices="tripinfo_L_35" vType="car9@L_35" speedFactor="1.02" vaporized=""/>
    <tripinfo id="R_37" depart="98.00" departLane="2_1" departPos="8.10" departSpeed="0.00" departDelay="0.00" arrival="133.60" arrivalLane="-1_0" arrivalPos="200.00" arrivalSpeed="11.18" duration="35.60" routeLength="397.06" waitingTime="0.00" waitingCount="0" stopTime="0.00" timeLoss="-0.32" rerouteNo="0" devices="tripinfo_R_37" vType="car8@R_37" speedFactor="1.18" vaporized=""/>
    <tripinfo id="R_36" depart="98.00" departLane="1_0" departPos="7.10" departSpeed="0.00" departDelay="0.00" arrival="133.70" arrivalLane="-4_0" arrivalPos="200.00" arrivalSpeed="11.18" duration="35.70" routeLength="398.06" waitingTime="0.00" waitingCount="0" stopTime="0.00" timeLoss="-0.49" rerouteNo="0" devices="tripinfo_R_36" vType="car7@R_36" speedFactor="0.97" vaporized=""/>
    <tripinfo id="L_38" depart="106.00" departLane="4_1" departPos="7.10" departSpeed="0.00" departDelay="0.00" arrival="143.20" arrivalLane="-1_2" arrivalPos="200.00" arrivalSpeed="11.18" duration="37.20" routeLength="412.45" waitingTime="0.00" waitingCount="0" stopTime="0.00" timeLoss="0.07" rerouteNo="0" devices="tripinfo_L_38" vType="car7@L_38" speedFactor="1.10" vaporized=""/>
    <tripinfo id="R_39" depart="109.00" departLane="1_0" departPos="7.10" departSpeed="0.00" departDelay="0.00" arrival="147.00" arrivalLane="-4_0" arrivalPos="200.00" arrivalSpeed="11.18" duration="38.00" routeLength="398.06" waitingTime="0.00" waitingCount="0" stopTime="0.00" timeLoss="1.70" rerouteNo="0" devices="tripinfo_R_39" vType="car7@R_39" speedFactor="0.90" vaporized=""/>
    <tripinfo id="R_40" depart="112.00" departLane="4_1" departPos="7.10" departSpeed="0.00" departDelay="0.00" arrival="147.70" arrivalLane="-3_0" arrivalPos="200.00" arrivalSpeed="11.18" duration="35.70" routeLength="398.06" waitingTime="0.00" waitingCount="0" stopTime="0.00" timeLoss="-0.44" rerouteNo="0" devices="tripinfo_R_40" vType="car7@R_40" speedFactor="1.03" vaporized=""/>
    <tripinfo id="R_41" depart="120.00" departLane="2_1" departPos="8.10" departSpeed="0.00" departDelay="0.00" arrival="155.60" arrivalLane="-1_0" arrivalPos="200.00" arrivalSpeed="11.18" duration="35.60" routeLength="397.06" waitingTime="0.00" waitingCount="0" stopTime="0.00" timeLoss="-0.51" rerouteNo="0" devices="tripinfo_R_41" vType="car8@R_41" speedFactor="0.96" vaporized=""/>
    <tripinfo id="L_42" depart="121.00" departLane="2_1" departPos="9.10" departSpeed="0.00" departDelay="0.00" arrival="158.00" arrivalLane="-3_2" arrivalPos="200.00" arrivalSpeed="11.18" duration="37.00" routeLength="410.45" waitingTime="0.00" waitingCount="0" stopTime="0.00" timeLoss="0.05" rerouteNo="0" devices="tripinfo_L_42" vType="car9@L_42" speedFactor="1.09" vaporized=""/>
    <tripinfo id="R_43" depart="123.00" departLane="3_2" departPos="7.10" departSpeed="0.00" departDelay="0.00" arrival="158.70" arrivalLane="-2_0" arrivalPos="200.00" arrivalSpeed="11.18" duration="35.70" routeLength="398.06" waitingTime="0.00" waitingCount="0" stopTime="0.00" timeLoss="-0.43" rerouteNo="0" devices="tripinfo_R_43" vType="car7@R_43" speedFactor="1.04" vaporized=""/>
    <tripinfo id="L_44" depart="128.00" departLane="3_2" departPos="8.10" departSpeed="0.00" departDelay="0.00" arrival="165.10" arrivalLane="-4_2" arrivalPos="200.00" arrivalSpeed="11.18" duration="37.10" routeLength="411.45" waitingTime="0.00" waitingCount="0" stopTime="0.00" timeLoss="-0.04" rerouteNo="0" devices="tripinfo_L_44" vType="car8@L_44" speedFactor="1.04" vaporized=""/>
    <tripinfo id="R_46" depart="136.00" departLane="2_2" departPos="9.10" departSpeed="0.00" departDelay="0.00" arrival="172.90" arrivalLane="-1_0" arrivalPos="200.00" arrivalSpeed="11.18" duration="36.90" routeLength="396.06" waitingTime="0.00" waitingCount="0" stopTime="0.00" timeLoss="0.90" rerouteNo="0" devices="tripinfo_R_46" vType="car9@R_46" speedFactor="1.00" vaporized=""/>
    <tripinfo id="L_47" depart="138.00" departLane="1_1" departPos="7.10" departSpeed="0.00" departDelay="0.00" arrival="175.20" arrivalLane="-2_2" arrivalPos="200.00" arrivalSpeed="11.18" duration="37.20" routeLength="412.45" waitingTime="0.00" waitingCount="0" stopTime="0.00" timeLoss="-0.37" rerouteNo="0" devices="tripinfo_L_47" vType="car7@L_47" speedFactor="0.90" vaporized=""/>
    <tripinfo id="S_45" depart="135.00" departLane="2_0" departPos="5.10" departSpeed="0.00" departDelay="0.00" arrival="176.20" arrivalLane="-4_1" arrivalPos="200.00" arrivalSpeed="11.18" duration="41.20" routeLength="417.30" waitingTime="1.80" waitingCount="1" stopTime="0.00" timeLoss="3.03" rerouteNo="0" devices="tripinfo_S_45" vType="car5@S_45" speedFactor="1.09" vaporized=""/>
    <tripinfo id="L_48" depart="141.00" departLane="2_2" departPos="9.10" departSpeed="0.00" departDelay="0.00" arrival="178.00" arrivalLane="-3_2" arrivalPos="200.00" arrivalSpeed="11.18" duration="37.00" routeLength="410.45" waitingTime="0.00" waitingCount="0" stopTime="0.00" timeLoss="-0.44" rerouteNo="0" devices="tripinfo_L_48" vType="car9@L_48" speedFactor="0.88" vaporized=""/>
    <tripinfo id="L_49" depart="143.00" departLane="4_0" departPos="8.10" departSpeed="0.00" departDelay="0.00" arrival="180.10" arrivalLane="-1_2" arrivalPos="200.00" arrivalSpeed="11.18" duration="37.10" routeLength="411.45" waitingTime="0.00" waitingCount="0" stopTime="0.00" timeLoss="-0.51" rerouteNo="0" devices="tripinfo_L_49" vType="car8@L_49" speedFactor="0.85" vaporized=""/>
    <tripinfo id="R_51" depart="145.00" departLane="1_0" departPos="9.10" departSpeed="0.00" departDelay="0.00" arrival="180.50" arrivalLane="-4_0" arrivalPos="200.00" arrivalSpeed="11.18" duration="35.50" routeLength="396.06" waitingTime="0.00" waitingCount="0" stopTime="0.00" timeLoss="-0.39" rerouteNo="0" devices="tripinfo_R_51" vType="car9@R_51" speedFactor="1.17" vaporized=""/>
    <tripinfo id="L_53" depart="145.00" departLane="3_0" departPos="8.10" departSpeed="0.00" departDelay="0.00" arrival="182.10" arrivalLane="-4_2" arrivalPos="200.00" arrivalSpeed="11.18" duration="37.10" routeLength="411.45" waitingTime="0.00" waitingCount="0" stopTime="0.00" timeLoss="0.05" rerouteNo="0" devices="tripinfo_L_53" vType="car8@L_53" speedFactor="1.10" vaporized=""/>
    <tripinfo id="L_50" depart="144.00" departLane="1_1" departPos="5.10" departSpeed="0.00" departDelay="0.00" arrival="182.40" arrivalLane="-2_2" arrivalPos="200.00" arrivalSpeed="11.18" duration="38.40" routeLength="414.45" waitingTime="0.00" waitingCount="0" stopTime="0.00" timeLoss="-0.53" rerouteNo="0" devices="tripinfo_L_50" vType="car5@L_50" speedFactor="0.85" vaporized=""/>
    <tripinfo id="L_52" depart="145.00" departLane="2_0" departPos="5.10" departSpeed="0.00" departDelay="0.00" arrival="184.70" arrivalLane="-3_2" arrivalPos="200.00" arrivalSpeed="11.18" duration="39.70" routeLength="414.45" waitingTime="0.00" waitingCount="0" stopTime="0.00" timeLoss="2.23" rerouteNo="0" devices="tripinfo_L_52" vType="car5@L_52" speedFactor="1.02" vaporized=""/>
    <tripinfo id="S_54" depart="148.00" departLane="1_2" departPos="7.10" departSpeed="0.00" departDelay="0.00" arrival="186.30" arrivalLane="-3_1" arrivalPos="200.00" arrivalSpeed="11.18" duration="38.30" routeLength="415.30" waitingTime="0.00" waitingCount="0" stopTime="0.00" timeLoss="1.15" rerouteNo="0" devices="tripinfo_S_54" vType="car7@S_54" speedFactor="1.00" vaporized=""/>
    <tripinfo id="L_55" depart="149.00" departLane="2_1" departPos="7.10" departSpeed="0.00" departDelay="0.00" arrival="188.50" arrivalLane="-3_2" arrivalPos="200.00" arrivalSpeed="11.18" duration="39.50" routeLength="412.45" waitingTime="0.00" waitingCount="0" stopTime="0.00" timeLoss="2.21" rerouteNo="0" devices="tripinfo_L_55" vType="car7@L_55" speedFactor="1.00" vaporized=""/>
    <tripinfo id="R_59" depart="155.00" departLane="4_0" departPos="6.10" departSpeed="0.00" departDelay="0.00" arrival="190.80" arrivalLane="-3_0" arrivalPos="200.00" arrivalSpeed="11.18" duration="35.80" routeLength="399.06" waitingTime="0.00" waitingCount="0" stopTime="0.00" timeLoss="-0.50" rerouteNo="0" devices="tripinfo_R_59" vType="car6@R_59" speedFactor="0.97" vaporized=""/>
    <tripinfo id="S_56" depart="153.00" departLane="1_0" departPos="9.10" departSpeed="0.00" departDelay="0.00" arrival="192.40" arrivalLane="-3_2" arrivalPos="200.00" arrivalSpeed="11.18" duration="39.40" routeLength="413.30" waitingTime="0.00" waitingCount="0" stopTime="0.00" timeLoss="2.35" rerouteNo="0" devices="tripinfo_S_56" vType="car9@S_56" speedFactor="0.90" vaporized=""/>
    <tripinfo id="L_57" depart="155.10" departLane="1_1" departPos="7.10" departSpeed="0.00" departDelay="1.10" arrival="194.40" arrivalLane="-2_2" arrivalPos="200.00" arrivalSpeed="11.18" duration="39.30" routeLength="412.45" waitingTime="0.10" waitingCount="1" stopTime="0.00" timeLoss="2.32" rerouteNo="0" devices="tripinfo_L_57" vType="car7@L_57" speedFactor="1.14" vaporized=""/>
    <tripinfo id="S_58" depart="155.00" departLane="2_1" departPos="5.10" departSpeed="0.00" departDelay="0.00" arrival="195.40" arrivalLane="-4_1" arrivalPos="200.00" arrivalSpeed="11.18" duration="40.40" routeLength="417.30" waitingTime="0.00" waitingCount="0" stopTime="0.00" timeLoss="2.35" rerouteNo="0" devices="tripinfo_S_58" vType="car5@S_58" speedFactor="1.02" vaporized=""/>
    <tripinfo id="S_61" depart="163.00" departLane="3_2" departPos="8.10" departSpeed="0.00" departDelay="0.00" arrival="200.10" arrivalLane="-1_2" arrivalPos="200.00" arrivalSpeed="11.18" duration="37.10" routeLength="414.30" waitingTime="0.00" waitingCount="0" stopTime="0.00" timeLoss="0.01" rerouteNo="0" devices="tripinfo_S_61" vType="car8@S_61" speedFactor="1.12" vaporized=""/>
    <tripinfo id="L_60" depart="163.00" departLane="2_1" departPos="7.10" departSpeed="0.00" departDelay="0.00" arrival="202.50" arrivalLane="-3_2" arrivalPos="200.00" arrivalSpeed="11.18" duration="39.50" routeLength="412.45" waitingTime="0.00" waitingCount="0" stopTime="0.00" timeLoss="2.33" rerouteNo="0" devices="tripinfo_L_60" vType="car7@L_60" speedFactor="1.08" vaporized=""/>
    <tripinfo id="R_62" depart="166.00" departLane="3_2" departPos="7.10" departSpeed="0.00" departDelay="0.00" arrival="202.60" arrivalLane="-2_0" arrivalPos="200.00" arrivalSpeed="11.18" duration="36.60" routeLength="398.06" waitingTime="0.00" waitingCount="0" stopTime="0.00" timeLoss="0.37" rerouteNo="0" devices="tripinfo_R_62" vType="car7@R_62" speedFactor="1.02" vaporized=""/>
    <tripinfo id="S_63" depart="174.00" departLane="1_0" departPos="7.10" departSpeed="0.00" departDelay="0.00" arrival="211.20" arrivalLane="-3_2" arrivalPos="200.00" arrivalSpeed="11.18" duration="37.20" routeLength="415.30" waitingTime="0.00" waitingCount="0" stopTime="0.00" timeLoss="0.01" rerouteNo="0" devices="tripinfo_S_63" vType="car7@S_63" speedFactor="0.99" vaporized=""/>
    <tripinfo id="L_64" depart="175.00" departLane="3_0" departPos="9.10" departSpeed="0.00" departDelay="0.00" arrival="213.10" arrivalLane="-4_2" arrivalPos="200.00" arrivalSpeed="11.18" duration="38.10" routeLength="410.45" waitingTime="0.00" waitingCount="0" stopTime="0.00" timeLoss="0.51" rerouteNo="0" devices="tripinfo_L_64" vType="car9@L_64" speedFactor="0.94" vaporized=""/>
    <tripinfo id="S_65" depart="176.10" departLane="3_1" departPos="9.10" departSpeed="0.00" departDelay="0.10" arrival="215.30" arrivalLane="-1_2" arrivalPos="200.00" arrivalSpeed="11.18" duration="39.20" routeLength="413.30" waitingTime="0.00" waitingCount="0" stopTime="0.00" timeLoss="2.17" rerouteNo="0" devices="tripinfo_S_65" vType="car9@S_65" speedFactor="0.88" vaporized=""/>
    <tripinfo id="S_66" depart="182.00" departLane="4_2" departPos="7.10" departSpeed="0.00" departDelay="0.00" arrival="219.70" arrivalLane="-2_2" arrivalPos="200.00" arrivalSpeed="11.18" duration="37.70" routeLength="415.30" waitingTime="0.00" waitingCount="0" stopTime="0.00" timeLoss="0.52" rerouteNo="0" devices="tripinfo_S_66" vType="car7@S_66" speedFactor="0.91" vaporized=""/>
    <tripinfo id="S_67" depart="183.00" departLane="4_0" departPos="6.10" departSpeed="0.00" departDelay="0.00" arrival="222.10" arrivalLane="-2_1" arrivalPos="200.00" arrivalSpeed="11.18" duration="39.10" routeLength="416.30" waitingTime="0.00" waitingCount="0" stopTime="0.00" timeLoss="1.87" rerouteNo="0" devices="tripinfo_S_67" vType="car6@S_67" speedFactor="0.91" vaporized=""/>
    <tripinfo id="R_68" depart="194.00" departLane="3_0" departPos="6.10" departSpeed="0.00" departDelay="0.00" arrival="229.80" arrivalLane="-2_0" arrivalPos="200.00" arrivalSpeed="11.18" duration="35.80" routeLength="399.06" waitingTime="0.00" waitingCount="0" stopTime="0.00" timeLoss="-0.43" rerouteNo="0" devices="tripinfo_R_68" vType="car6@R_68" speedFactor="1.04" vaporized=""/>
    <tripinfo id="R_70" depart="199.00" departLane="1_0" departPos="7.10" departSpeed="0.00" departDelay="0.00" arrival="234.70" arrivalLane="-4_0" arrivalPos="200.00" arrivalSpeed="11.18" duration="35.70" routeLength="398.06" waitingTime="0.00" waitingCount="0" stopTime="0.00" timeLoss="-0.44" rerouteNo="0" devices="tripinfo_R_70" vType="car7@R_70" speedFactor="1.02" vaporized=""/>
    <tripinfo id="L_71" depart="200.00" departLane="2_1" departPos="9.10" departSpeed="0.00" departDelay="0.00" arrival="237.00" arrivalLane="-3_2" arrivalPos="200.00" arrivalSpeed="11.18" duration="37.00" routeLength="410.45" waitingTime="0.00" waitingCount="0" stopTime="0.00" timeLoss="-0.20" rerouteNo="0" devices="tripinfo_L_71" vType="car9@L_71" speedFactor="0.97" vaporized=""/>
    <tripinfo id="S_69" depart="198.00" departLane="3_0" departPos="9.10" departSpeed="0.00" departDelay="0.00" arrival="237.70" arrivalLane="-1_0" arrivalPos="200.00" arrivalSpeed="11.18" duration="39.70" routeLength="413.30" waitingTime="0.00" waitingCount="0" stopTime="0.00" timeLoss="1.38" rerouteNo="0" devices="tripinfo_S_69" vType="car9@S_69" speedFactor="1.02" vaporized=""/>
    <tripinfo id="L_72" depart="204.00" departLane="4_1" departPos="8.10" departSpeed="0.00" departDelay="0.00" arrival="241.10" arrivalLane="-1_2" arrivalPos="200.00" arrivalSpeed="11.18" duration="37.10" routeLength="411.45" waitingTime="0.00" waitingCount="0" stopTime="0.00" timeLoss="-0.27" rerouteNo="0" devices="tripinfo_L_72" vType="car8@L_72" speedFactor="0.94" vaporized=""/>
    <tripinfo id="R_73" depart="210.00" departLane="2_2" departPos="8.10" departSpeed="0.00" departDelay="0.00" arrival="246.60" arrivalLane="-1_0" arrivalPos="200.00" arrivalSpeed="11.18" duration="36.60" routeLength="397.06" waitingTime="0.00" waitingCount="0" stopTime="0.00" timeLoss="0.42" rerouteNo="0" devices="tripinfo_R_73" vType="car8@R_73" speedFactor="1.06" vaporized=""/>
    <tripinfo id="S_74" depart="218.00" departLane="3_0" departPos="8.10" departSpeed="0.00" departDelay="0.00" arrival="256.40" arrivalLane="-1_2" arrivalPos="200.00" arrivalSpeed="11.18" duration="38.40" routeLength="414.30" waitingTime="0.00" waitingCount="0" stopTime="0.00" timeLoss="1.34" rerouteNo="0" devices="tripinfo_S_74" vType="car8@S_74" speedFactor="0.96" vaporized=""/>