<?xml version="1.0" encoding="UTF-8"?>

<!-- generated on 03/24/20 03:55:14 by Eclipse SUMO GUI Version 1.3.1
<configuration xmlns:xsi="http://www.w3.org/2001/XMLSchema-instance" xsi:noNamespaceSchemaLocation="http://sumo.dlr.de/xsd/sumoConfiguration.xsd">

    <input>
        <net-file value="data/lane3.net.xml"/>
        <route-files value="data/icacc+.rou.xml"/>
        <additional-files value="data/icacc+.det.xml"/>
    </input>

    <output>
        <tripinfo-output value="tripinfo.xml"/>
    </output>

    <time>
        <begin value="0"/>
        <step-length value="0.1"/>
    </time>

    <processing>
        <collision.mingap-factor value="0"/>
    </processing>

    <report>
        <verbose value="true"/>
        <no-step-log value="true"/>
    </report>

    <traci_server>
        <remote-port value="4543"/>
    </traci_server>

    <gui_only>
        <start value="true"/>
        <tracker-interval value="0.1"/>
    </gui_only>

</configuration>
-->

<tripinfos xmlns:xsi="http://www.w3.org/2001/XMLSchema-instance" xsi:noNamespaceSchemaLocation="http://sumo.dlr.de/xsd/tripinfo_file.xsd">
    <tripinfo id="R_1" depart="0.00" departLane="2_1" departPos="7.10" departSpeed="0.00" departDelay="0.00" arrival="35.70" arrivalLane="-1_0" arrivalPos="200.00" arrivalSpeed="11.18" duration="35.70" routeLength="398.06" waitingTime="0.00" waitingCount="0" stopTime="0.00" timeLoss="-2.66" rerouteNo="0" devices="tripinfo_R_1" vType="car7@R_1" speedFactor="0.94" vaporized=""/>
    <tripinfo id="S_0" depart="0.00" departLane="1_2" departPos="8.10" departSpeed="0.00" departDelay="0.00" arrival="37.10" arrivalLane="-3_2" arrivalPos="200.00" arrivalSpeed="11.18" duration="37.10" routeLength="414.30" waitingTime="0.00" waitingCount="0" stopTime="0.00" timeLoss="0.01" rerouteNo="0" devices="tripinfo_S_0" vType="car8@S_0" speedFactor="1.06" vaporized=""/>
    <tripinfo id="L_3" depart="0.00" departLane="4_2" departPos="7.10" departSpeed="0.00" departDelay="0.00" arrival="37.50" arrivalLane="-1_2" arrivalPos="200.00" arrivalSpeed="11.18" duration="37.50" routeLength="412.45" waitingTime="0.00" waitingCount="0" stopTime="0.00" timeLoss="-2.41" rerouteNo="0" devices="tripinfo_L_3" vType="car7@L_3" speedFactor="1.08" vaporized=""/>
    <tripinfo id="R_11" depart="2.00" departLane="4_0" departPos="5.10" departSpeed="0.00" departDelay="0.00" arrival="37.90" arrivalLane="-3_0" arrivalPos="200.00" arrivalSpeed="11.18" duration="35.90" routeLength="400.06" waitingTime="0.00" waitingCount="0" stopTime="0.00" timeLoss="-2.57" rerouteNo="0" devices="tripinfo_R_11" vType="car5@R_11" speedFactor="1.03" vaporized=""/>
    <tripinfo id="L_2" depart="0.00" departLane="3_2" departPos="5.10" departSpeed="0.00" departDelay="0.00" arrival="39.10" arrivalLane="-4_2" arrivalPos="200.00" arrivalSpeed="11.18" duration="39.10" routeLength="414.45" waitingTime="0.90" waitingCount="1" stopTime="0.00" timeLoss="-4182.33" rerouteNo="0" devices="tripinfo_L_2" vType="car5@L_2" speedFactor="1.01" vaporized=""/>
    <tripinfo id="S_8" depart="2.00" departLane="1_1" departPos="5.10" departSpeed="0.00" departDelay="0.00" arrival="39.60" arrivalLane="-3_2" arrivalPos="200.00" arrivalSpeed="11.18" duration="37.60" routeLength="417.30" waitingTime="0.00" waitingCount="0" stopTime="0.00" timeLoss="-0.09" rerouteNo="0" devices="tripinfo_S_8" vType="car5@S_8" speedFactor="0.94" vaporized=""/>
    <tripinfo id="S_10" depart="2.00" departLane="3_0" departPos="6.10" departSpeed="0.00" departDelay="0.00" arrival="40.00" arrivalLane="-1_2" arrivalPos="200.00" arrivalSpeed="11.18" duration="38.00" routeLength="416.30" waitingTime="0.00" waitingCount="0" stopTime="0.00" timeLoss="0.71" rerouteNo="0" devices="tripinfo_S_10" vType="car6@S_10" speedFactor="1.09" vaporized=""/>
    <tripinfo id="R_13" depart="4.20" departLane="2_2" departPos="9.10" departSpeed="0.00" departDelay="1.20" arrival="40.10" arrivalLane="-1_0" arrivalPos="200.00" arrivalSpeed="11.18" duration="35.90" routeLength="396.06" waitingTime="0.10" waitingCount="1" stopTime="0.00" timeLoss="-2.15" rerouteNo="0" devices="tripinfo_R_13" vType="car9@R_13" speedFactor="1.12" vaporized=""/>
    <tripinfo id="L_5" depart="1.00" departLane="2_0" departPos="9.10" departSpeed="0.00" departDelay="0.00" arrival="40.60" arrivalLane="-3_2" arrivalPos="200.00" arrivalSpeed="11.18" duration="39.60" routeLength="410.45" waitingTime="1.60" waitingCount="1" stopTime="0.00" timeLoss="-4559.34" rerouteNo="0" devices="tripinfo_L_5" vType="car9@L_5" speedFactor="0.83" vaporized=""/>
    <tripinfo id="R_20" depart="5.00" departLane="1_1" departPos="8.10" departSpeed="0.00" departDelay="0.00" arrival="40.60" arrivalLane="-4_0" arrivalPos="200.00" arrivalSpeed="11.18" duration="35.60" routeLength="397.06" waitingTime="0.00" waitingCount="0" stopTime="0.00" timeLoss="-2.66" rerouteNo="0" devices="tripinfo_R_20" vType="car8@R_20" speedFactor="1.02" vaporized=""/>
    <tripinfo id="R_15" depart="3.00" departLane="4_2" departPos="7.10" departSpeed="0.00" departDelay="0.00" arrival="40.80" arrivalLane="-3_0" arrivalPos="200.00" arrivalSpeed="11.18" duration="37.80" routeLength="398.06" waitingTime="0.10" waitingCount="1" stopTime="0.00" timeLoss="-0.60" rerouteNo="0" devices="tripinfo_R_15" vType="car7@R_15" speedFactor="0.93" vaporized=""/>
    <tripinfo id="S_7" depart="1.00" departLane="4_2" departPos="6.10" departSpeed="0.00" departDelay="0.00" arrival="41.30" arrivalLane="-2_2" arrivalPos="200.00" arrivalSpeed="11.18" duration="40.30" routeLength="416.30" waitingTime="0.00" waitingCount="0" stopTime="0.00" timeLoss="-0.82" rerouteNo="0" devices="tripinfo_S_7" vType="car6@S_7" speedFactor="0.89" vaporized=""/>
    <tripinfo id="S_17" depart="4.30" departLane="2_2" departPos="9.10" departSpeed="0.00" departDelay="0.30" arrival="41.50" arrivalLane="-4_1" arrivalPos="200.00" arrivalSpeed="11.18" duration="37.20" routeLength="413.30" waitingTime="0.10" waitingCount="1" stopTime="0.00" timeLoss="0.10" rerouteNo="0" devices="tripinfo_S_17" vType="car9@S_17" speedFactor="0.94" vaporized=""/>
    <tripinfo id="S_9" depart="2.00" departLane="2_1" departPos="7.10" departSpeed="0.00" departDelay="0.00" arrival="41.80" arrivalLane="-4_2" arrivalPos="200.00" arrivalSpeed="11.18" duration="39.80" routeLength="415.30" waitingTime="0.00" waitingCount="0" stopTime="0.00" timeLoss="2.65" rerouteNo="0" devices="tripinfo_S_9" vType="car7@S_9" speedFactor="0.86" vaporized=""/>
    <tripinfo id="R_23" depart="5.00" departLane="4_1" departPos="5.10" departSpeed="0.00" departDelay="0.00" arrival="42.80" arrivalLane="-3_0" arrivalPos="200.00" arrivalSpeed="11.18" duration="37.80" routeLength="400.06" waitingTime="0.00" waitingCount="0" stopTime="0.00" timeLoss="-0.85" rerouteNo="0" devices="tripinfo_R_23" vType="car5@R_23" speedFactor="0.89" vaporized=""/>
    <tripinfo id="L_4" depart="1.00" departLane="1_0" departPos="7.10" departSpeed="0.00" departDelay="0.00" arrival="43.00" arrivalLane="-2_2" arrivalPos="200.00" arrivalSpeed="11.18" duration="42.00" routeLength="412.45" waitingTime="0.00" waitingCount="0" stopTime="0.00" timeLoss="-2.51" rerouteNo="0" devices="tripinfo_L_4" vType="car7@L_4" speedFactor="1.03" vaporized=""/>
    <tripinfo id="L_18" depart="4.00" departLane="3_1" departPos="5.10" departSpeed="0.00" departDelay="0.00" arrival="43.00" arrivalLane="-4_2" arrivalPos="200.00" arrivalSpeed="11.18" duration="39.00" routeLength="414.45" waitingTime="0.30" waitingCount="2" stopTime="0.00" timeLoss="-3994.44" rerouteNo="0" devices="tripinfo_L_18" vType="car5@L_18" speedFactor="0.94" vaporized=""/>
    <tripinfo id="R_21" depart="5.10" departLane="2_1" departPos="7.10" departSpeed="0.00" departDelay="0.10" arrival="43.20" arrivalLane="-1_0" arrivalPos="200.00" arrivalSpeed="11.18" duration="38.10" routeLength="398.06" waitingTime="0.10" waitingCount="1" stopTime="0.00" timeLoss="-0.25" rerouteNo="0" devices="tripinfo_R_21" vType="car7@R_21" speedFactor="1.01" vaporized=""/>
    <tripinfo id="R_34" depart="8.00" departLane="3_0" departPos="7.10" departSpeed="0.00" departDelay="0.00" arrival="43.70" arrivalLane="-2_0" arrivalPos="200.00" arrivalSpeed="11.18" duration="35.70" routeLength="398.06" waitingTime="0.00" waitingCount="0" stopTime="0.00" timeLoss="-2.60" rerouteNo="0" devices="tripinfo_R_34" vType="car7@R_34" speedFactor="0.99" vaporized=""/>
    <tripinfo id="R_32" depart="8.00" departLane="1_1" departPos="7.10" departSpeed="0.00" departDelay="0.00" arrival="44.00" arrivalLane="-4_0" arrivalPos="200.00" arrivalSpeed="11.18" duration="36.00" routeLength="398.06" waitingTime="0.00" waitingCount="0" stopTime="0.00" timeLoss="-2.35" rerouteNo="0" devices="tripinfo_R_32" vType="car7@R_32" speedFactor="1.01" vaporized=""/>
    <tripinfo id="L_12" depart="3.00" departLane="1_1" departPos="8.10" departSpeed="0.00" departDelay="0.00" arrival="44.10" arrivalLane="-2_2" arrivalPos="200.00" arrivalSpeed="11.18" duration="41.10" routeLength="411.45" waitingTime="0.10" waitingCount="1" stopTime="0.00" timeLoss="1.87" rerouteNo="0" devices="tripinfo_L_12" vType="car8@L_12" speedFactor="1.05" vaporized=""/>
    <tripinfo id="L_19" depart="4.00" departLane="4_2" departPos="7.10" departSpeed="0.00" departDelay="0.00" arrival="44.90" arrivalLane="-1_2" arrivalPos="200.00" arrivalSpeed="11.18" duration="40.90" routeLength="412.45" waitingTime="0.50" waitingCount="1" stopTime="0.00" timeLoss="-4544.49" rerouteNo="0" devices="tripinfo_L_19" vType="car7@L_19" speedFactor="1.16" vaporized=""/>
    <tripinfo id="R_25" depart="6.00" departLane="2_1" departPos="5.10" departSpeed="0.00" departDelay="0.00" arrival="45.00" arrivalLane="-1_0" arrivalPos="200.00" arrivalSpeed="11.18" duration="39.00" routeLength="400.06" waitingTime="0.10" waitingCount="1" stopTime="0.00" timeLoss="0.28" rerouteNo="0" devices="tripinfo_R_25" vType="car5@R_25" speedFactor="0.87" vaporized=""/>
    <tripinfo id="L_30" depart="7.00" departLane="3_0" departPos="8.10" departSpeed="0.00" departDelay="0.00" arrival="45.10" arrivalLane="-4_2" arrivalPos="200.00" arrivalSpeed="11.18" duration="38.10" routeLength="411.45" waitingTime="0.00" waitingCount="0" stopTime="0.00" timeLoss="-4761.76" rerouteNo="0" devices="tripinfo_L_30" vType="car8@L_30" speedFactor="1.18" vaporized=""/>
    <tripinfo id="R_43" depart="10.00" departLane="4_1" departPos="5.10" departSpeed="0.00" departDelay="0.00" arrival="46.10" arrivalLane="-3_0" arrivalPos="200.00" arrivalSpeed="11.18" duration="36.10" routeLength="400.06" waitingTime="0.00" waitingCount="0" stopTime="0.00" timeLoss="-2.40" rerouteNo="0" devices="tripinfo_R_43" vType="car5@R_43" speedFactor="1.04" vaporized=""/>
    <tripinfo id="R_40" depart="10.90" departLane="1_2" departPos="8.10" departSpeed="0.00" departDelay="0.90" arrival="46.60" arrivalLane="-4_0" arrivalPos="200.00" arrivalSpeed="11.18" duration="35.70" routeLength="397.06" waitingTime="0.10" waitingCount="1" stopTime="0.00" timeLoss="-2.54" rerouteNo="0" devices="tripinfo_R_40" vType="car8@R_40" speedFactor="1.03" vaporized=""/>
    <tripinfo id="S_16" depart="6.00" departLane="1_2" departPos="6.10" departSpeed="0.00" departDelay="2.00" arrival="47.10" arrivalLane="-3_2" arrivalPos="200.00" arrivalSpeed="11.18" duration="41.10" routeLength="416.30" waitingTime="0.40" waitingCount="2" stopTime="0.00" timeLoss="-4929.99" rerouteNo="0" devices="tripinfo_S_16" vType="car6@S_16" speedFactor="0.88" vaporized=""/>
    <tripinfo id="R_29" depart="9.00" departLane="2_0" departPos="7.10" departSpeed="0.00" departDelay="2.00" arrival="47.20" arrivalLane="-1_0" arrivalPos="200.00" arrivalSpeed="11.18" duration="38.20" routeLength="398.06" waitingTime="0.10" waitingCount="1" stopTime="0.00" timeLoss="-0.21" rerouteNo="0" devices="tripinfo_R_29" vType="car7@R_29" speedFactor="0.93" vaporized=""/>
    <tripinfo id="L_27" depart="6.00" departLane="4_2" departPos="6.10" departSpeed="0.00" departDelay="0.00" arrival="47.40" arrivalLane="-1_2" arrivalPos="200.00" arrivalSpeed="11.18" duration="41.40" routeLength="413.45" waitingTime="0.60" waitingCount="1" stopTime="0.00" timeLoss="-4770.43" rerouteNo="0" devices="tripinfo_L_27" vType="car6@L_27" speedFactor="0.95" vaporized=""/>
    <tripinfo id="L_35" depart="8.00" departLane="4_1" departPos="6.10" departSpeed="0.00" departDelay="0.00" arrival="48.30" arrivalLane="-1_2" arrivalPos="200.00" arrivalSpeed="11.18" duration="40.30" routeLength="413.45" waitingTime="0.10" waitingCount="1" stopTime="0.00" timeLoss="0.83" rerouteNo="0" devices="tripinfo_L_35" vType="car6@L_35" speedFactor="1.02" vaporized=""/>
    <tripinfo id="L_6" depart="1.00" departLane="3_0" departPos="5.10" departSpeed="0.00" departDelay="0.00" arrival="48.80" arrivalLane="-4_2" arrivalPos="200.00" arrivalSpeed="11.18" duration="47.80" routeLength="414.45" waitingTime="1.00" waitingCount="4" stopTime="0.00" timeLoss="-4393.73" rerouteNo="0" devices="tripinfo_L_6" vType="car5@L_6" speedFactor="1.05" vaporized=""/>
    <tripinfo id="R_37" depart="11.50" departLane="2_0" departPos="6.10" departSpeed="0.00" departDelay="2.50" arrival="49.60" arrivalLane="-1_0" arrivalPos="200.00" arrivalSpeed="11.18" duration="38.10" routeLength="399.06" waitingTime="0.00" waitingCount="0" stopTime="0.00" timeLoss="-0.13" rerouteNo="0" devices="tripinfo_R_37" vType="car6@R_37" speedFactor="1.18" vaporized=""/>
    <tripinfo id="R_24" depart="8.70" departLane="1_2" departPos="9.10" departSpeed="0.00" departDelay="2.70" arrival="49.70" arrivalLane="-4_0" arrivalPos="200.00" arrivalSpeed="11.18" duration="41.00" routeLength="396.06" waitingTime="0.20" waitingCount="2" stopTime="0.00" timeLoss="2.61" rerouteNo="0" devices="tripinfo_R_24" vType="car9@R_24" speedFactor="0.83" vaporized=""/>
    <tripinfo id="S_31" depart="10.30" departLane="4_2" departPos="8.10" departSpeed="0.00" departDelay="3.30" arrival="49.70" arrivalLane="-2_1" arrivalPos="200.00" arrivalSpeed="11.18" duration="39.40" routeLength="414.30" waitingTime="1.30" waitingCount="2" stopTime="0.00" timeLoss="-4526.37" rerouteNo="0" devices="tripinfo_S_31" vType="car8@S_31" speedFactor="1.15" vaporized=""/>
    <tripinfo id="R_51" depart="12.00" departLane="4_0" departPos="8.10" departSpeed="0.00" departDelay="0.00" arrival="50.00" arrivalLane="-3_0" arrivalPos="200.00" arrivalSpeed="11.18" duration="38.00" routeLength="397.06" waitingTime="0.00" waitingCount="0" stopTime="0.00" timeLoss="-0.21" rerouteNo="0" devices="tripinfo_R_51" vType="car8@R_51" speedFactor="1.17" vaporized=""/>
    <tripinfo id="L_28" depart="8.80" departLane="1_2" departPos="7.10" departSpeed="0.00" departDelay="1.80" arrival="50.40" arrivalLane="-2_2" arrivalPos="200.00" arrivalSpeed="11.18" duration="41.60" routeLength="412.45" waitingTime="1.20" waitingCount="1" stopTime="0.00" timeLoss="-4680.17" rerouteNo="0" devices="tripinfo_L_28" vType="car7@L_28" speedFactor="1.13" vaporized=""/>
    <tripinfo id="L_14" depart="3.00" departLane="3_0" departPos="8.10" departSpeed="0.00" departDelay="0.00" arrival="51.00" arrivalLane="-4_2" arrivalPos="200.00" arrivalSpeed="11.18" duration="48.00" routeLength="411.45" waitingTime="0.40" waitingCount="2" stopTime="0.00" timeLoss="-4857.49" rerouteNo="0" devices="tripinfo_L_14" vType="car8@L_14" speedFactor="0.99" vaporized=""/>
    <tripinfo id="R_41" depart="13.10" departLane="2_0" departPos="5.10" departSpeed="0.00" departDelay="3.10" arrival="51.40" arrivalLane="-1_0" arrivalPos="200.00" arrivalSpeed="11.18" duration="38.30" routeLength="400.06" waitingTime="0.20" waitingCount="1" stopTime="0.00" timeLoss="-0.27" rerouteNo="0" devices="tripinfo_R_41" vType="car5@R_41" speedFactor="0.96" vaporized=""/>
    <tripinfo id="L_44" depart="11.50" departLane="1_1" departPos="5.10" departSpeed="0.00" departDelay="0.50" arrival="51.50" arrivalLane="-2_2" arrivalPos="200.00" arrivalSpeed="11.18" duration="40.00" routeLength="414.45" waitingTime="0.10" waitingCount="1" stopTime="0.00" timeLoss="0.44" rerouteNo="0" devices="tripinfo_L_44" vType="car5@L_44" speedFactor="1.04" vaporized=""/>
    <tripinfo id="R_36" depart="9.70" departLane="1_1" departPos="8.10" departSpeed="0.00" departDelay="0.70" arrival="51.60" arrivalLane="-4_0" arrivalPos="200.00" arrivalSpeed="11.18" duration="41.90" routeLength="397.06" waitingTime="0.10" waitingCount="1" stopTime="0.00" timeLoss="3.67" rerouteNo="0" devices="tripinfo_R_36" vType="car8@R_36" speedFactor="0.97" vaporized=""/>
    <tripinfo id="R_39" depart="10.40" departLane="4_2" departPos="9.10" departSpeed="0.00" departDelay="1.40" arrival="51.90" arrivalLane="-3_0" arrivalPos="200.00" arrivalSpeed="11.18" duration="41.50" routeLength="396.06" waitingTime="3.60" waitingCount="1" stopTime="0.00" timeLoss="3.26" rerouteNo="0" devices="tripinfo_R_39" vType="car9@R_39" speedFactor="0.90" vaporized=""/>
    <tripinfo id="L_22" depart="5.10" departLane="3_2" departPos="7.10" departSpeed="0.00" departDelay="0.10" arrival="52.10" arrivalLane="-4_2" arrivalPos="200.00" arrivalSpeed="11.18" duration="47.00" routeLength="412.45" waitingTime="0.50" waitingCount="2" stopTime="0.00" timeLoss="7.54" rerouteNo="0" devices="tripinfo_L_22" vType="car7@L_22" speedFactor="0.98" vaporized=""/>
    <tripinfo id="L_52" depart="13.00" departLane="1_1" departPos="6.10" departSpeed="0.00" departDelay="0.00" arrival="53.00" arrivalLane="-2_2" arrivalPos="200.00" arrivalSpeed="11.18" duration="40.00" routeLength="413.45" waitingTime="0.10" waitingCount="1" stopTime="0.00" timeLoss="0.47" rerouteNo="0" devices="tripinfo_L_52" vType="car6@L_52" speedFactor="1.02" vaporized=""/>
    <tripinfo id="L_47" depart="11.00" departLane="4_1" departPos="5.10" departSpeed="0.00" departDelay="0.00" arrival="54.30" arrivalLane="-1_2" arrivalPos="200.00" arrivalSpeed="11.18" duration="43.30" routeLength="414.45" waitingTime="1.90" waitingCount="1" stopTime="0.00" timeLoss="-4574.11" rerouteNo="0" devices="tripinfo_L_47" vType="car5@L_47" speedFactor="0.90" vaporized=""/>
    <tripinfo id="R_46" depart="12.10" departLane="3_1" departPos="5.10" departSpeed="0.00" departDelay="1.10" arrival="54.40" arrivalLane="-2_0" arrivalPos="200.00" arrivalSpeed="11.18" duration="42.30" routeLength="400.06" waitingTime="4.00" waitingCount="1" stopTime="0.00" timeLoss="3.77" rerouteNo="0" devices="tripinfo_R_46" vType="car5@R_46" speedFactor="1.00" vaporized=""/>
    <tripinfo id="S_33" depart="11.40" departLane="2_0" departPos="9.10" departSpeed="0.00" departDelay="3.40" arrival="55.00" arrivalLane="-4_2" arrivalPos="200.00" arrivalSpeed="11.18" duration="43.60" routeLength="413.30" waitingTime="3.30" waitingCount="2" stopTime="0.00" timeLoss="-4751.74" rerouteNo="0" devices="tripinfo_S_33" vType="car9@S_33" speedFactor="1.17" vaporized=""/>
    <tripinfo id="S_45" depart="11.00" departLane="2_2" departPos="7.10" departSpeed="0.00" departDelay="0.00" arrival="56.10" arrivalLane="-4_2" arrivalPos="200.00" arrivalSpeed="11.18" duration="45.10" routeLength="415.30" waitingTime="2.20" waitingCount="4" stopTime="0.00" timeLoss="7.93" rerouteNo="0" devices="tripinfo_S_45" vType="car7@S_45" speedFactor="1.09" vaporized=""/>
    <tripinfo id="L_60" depart="17.30" departLane="1_0" departPos="9.10" departSpeed="0.00" departDelay="2.30" arrival="56.40" arrivalLane="-2_2" arrivalPos="200.00" arrivalSpeed="11.18" duration="39.10" routeLength="410.45" waitingTime="1.00" waitingCount="2" stopTime="0.00" timeLoss="-4485.26" rerouteNo="0" devices="tripinfo_L_60" vType="car9@L_60" speedFactor="1.08" vaporized=""/>
    <tripinfo id="L_50" depart="14.20" departLane="3_0" departPos="5.10" departSpeed="0.00" departDelay="2.20" arrival="57.10" arrivalLane="-4_2" arrivalPos="200.00" arrivalSpeed="11.18" duration="42.90" routeLength="414.45" waitingTime="3.30" waitingCount="2" stopTime="0.00" timeLoss="-4380.87" rerouteNo="0" devices="tripinfo_L_50" vType="car5@L_50" speedFactor="0.85" vaporized=""/>
    <tripinfo id="R_82" depart="20.10" departLane="3_0" departPos="5.10" departSpeed="0.00" departDelay="0.10" arrival="58.50" arrivalLane="-2_0" arrivalPos="200.00" arrivalSpeed="11.18" duration="38.40" routeLength="400.06" waitingTime="0.20" waitingCount="1" stopTime="0.00" timeLoss="-0.06" rerouteNo="0" devices="tripinfo_R_82" vType="car5@R_82" speedFactor="1.02" vaporized=""/>
    <tripinfo id="R_68" depart="17.40" departLane="1_0" departPos="9.10" departSpeed="0.00" departDelay="0.40" arrival="58.60" arrivalLane="-4_0" arrivalPos="200.00" arrivalSpeed="11.18" duration="41.20" routeLength="396.06" waitingTime="2.20" waitingCount="2" stopTime="0.00" timeLoss="3.06" rerouteNo="0" devices="tripinfo_R_68" vType="car9@R_68" speedFactor="1.04" vaporized=""/>
    <tripinfo id="S_56" depart="14.00" departLane="1_0" departPos="9.10" departSpeed="0.00" departDelay="0.00" arrival="59.00" arrivalLane="-3_0" arrivalPos="200.00" arrivalSpeed="11.18" duration="45.00" routeLength="413.30" waitingTime="3.20" waitingCount="2" stopTime="0.00" timeLoss="-4275.45" rerouteNo="0" devices="tripinfo_S_56" vType="car9@S_56" speedFactor="0.90" vaporized=""/>
    <tripinfo id="L_42" depart="10.00" departLane="3_0" departPos="5.10" departSpeed="0.00" departDelay="0.00" arrival="59.40" arrivalLane="-4_2" arrivalPos="200.00" arrivalSpeed="11.18" duration="49.40" routeLength="414.45" waitingTime="1.90" waitingCount="7" stopTime="0.00" timeLoss="-4954.26" rerouteNo="0" devices="tripinfo_L_42" vType="car5@L_42" speedFactor="1.09" vaporized=""/>
    <tripinfo id="L_49" depart="13.80" departLane="2_1" departPos="9.10" departSpeed="0.00" departDelay="1.80" arrival="59.40" arrivalLane="-3_2" arrivalPos="200.00" arrivalSpeed="11.18" duration="45.60" routeLength="410.45" waitingTime="3.70" waitingCount="3" stopTime="0.00" timeLoss="-4407.10" rerouteNo="0" devices="tripinfo_L_49" vType="car9@L_49" speedFactor="0.85" vaporized=""/>
    <tripinfo id="R_76" depart="20.00" departLane="1_0" departPos="9.10" departSpeed="0.00" departDelay="1.00" arrival="59.80" arrivalLane="-4_0" arrivalPos="200.00" arrivalSpeed="11.18" duration="39.80" routeLength="396.06" waitingTime="0.80" waitingCount="3" stopTime="0.00" timeLoss="1.69" rerouteNo="0" devices="tripinfo_R_76" vType="car9@R_76" speedFactor="1.03" vaporized=""/>
    <tripinfo id="R_59" depart="18.20" departLane="4_0" departPos="5.10" departSpeed="0.00" departDelay="4.20" arrival="60.20" arrivalLane="-3_0" arrivalPos="200.00" arrivalSpeed="11.18" duration="42.00" routeLength="400.06" waitingTime="2.90" waitingCount="2" stopTime="0.00" timeLoss="-4379.99" rerouteNo="0" devices="tripinfo_R_59" vType="car5@R_59" speedFactor="0.97" vaporized=""/>
    <tripinfo id="R_73" depart="22.00" departLane="2_0" departPos="5.10" departSpeed="0.00" departDelay="4.00" arrival="60.20" arrivalLane="-1_0" arrivalPos="200.00" arrivalSpeed="11.18" duration="38.20" routeLength="400.06" waitingTime="0.00" waitingCount="0" stopTime="0.00" timeLoss="-0.22" rerouteNo="0" devices="tripinfo_R_73" vType="car5@R_73" speedFactor="1.06" vaporized=""/>
    <tripinfo id="L_57" depart="15.60" departLane="2_0" departPos="9.10" departSpeed="0.00" departDelay="1.60" arrival="60.60" arrivalLane="-3_2" arrivalPos="200.00" arrivalSpeed="11.18" duration="45.00" routeLength="410.45" waitingTime="3.80" waitingCount="2" stopTime="0.00" timeLoss="5.88" rerouteNo="0" devices="tripinfo_L_57" vType="car9@L_57" speedFactor="1.14" vaporized=""/>
    <tripinfo id="R_79" depart="20.70" departLane="4_0" departPos="9.10" departSpeed="0.00" departDelay="1.70" arrival="61.00" arrivalLane="-3_0" arrivalPos="200.00" arrivalSpeed="11.18" duration="40.30" routeLength="396.06" waitingTime="1.20" waitingCount="3" stopTime="0.00" timeLoss="2.27" rerouteNo="0" devices="tripinfo_R_79" vType="car9@R_79" speedFactor="1.09" vaporized=""/>
    <tripinfo id="L_55" depart="14.10" departLane="4_0" departPos="8.10" departSpeed="0.00" departDelay="1.10" arrival="61.40" arrivalLane="-1_2" arrivalPos="200.00" arrivalSpeed="11.18" duration="47.30" routeLength="411.45" waitingTime="7.00" waitingCount="2" stopTime="0.00" timeLoss="-4211.17" rerouteNo="0" devices="tripinfo_L_55" vType="car8@L_55" speedFactor="1.00" vaporized=""/>
    <tripinfo id="R_87" depart="22.70" departLane="4_0" departPos="6.10" departSpeed="0.00" departDelay="1.70" arrival="62.20" arrivalLane="-3_0" arrivalPos="200.00" arrivalSpeed="11.18" duration="39.50" routeLength="399.06" waitingTime="0.20" waitingCount="1" stopTime="0.00" timeLoss="1.13" rerouteNo="0" devices="tripinfo_R_87" vType="car6@R_87" speedFactor="1.04" vaporized=""/>
    <tripinfo id="S_67" depart="16.00" departLane="4_2" departPos="5.10" departSpeed="0.00" departDelay="0.00" arrival="62.50" arrivalLane="-2_2" arrivalPos="200.00" arrivalSpeed="11.18" duration="46.50" routeLength="417.30" waitingTime="3.10" waitingCount="3" stopTime="0.00" timeLoss="9.18" rerouteNo="0" devices="tripinfo_S_67" vType="car5@S_67" speedFactor="0.91" vaporized=""/>
    <tripinfo id="L_48" depart="15.60" departLane="1_2" departPos="7.10" departSpeed="0.00" departDelay="3.60" arrival="63.70" arrivalLane="-2_2" arrivalPos="200.00" arrivalSpeed="11.18" duration="48.10" routeLength="412.45" waitingTime="5.10" waitingCount="3" stopTime="0.00" timeLoss="-4249.51" rerouteNo="0" devices="tripinfo_L_48" vType="car7@L_48" speedFactor="0.88" vaporized=""/>
    <tripinfo id="R_78" depart="23.70" departLane="3_1" departPos="5.10" departSpeed="0.00" departDelay="4.70" arrival="64.10" arrivalLane="-2_0" arrivalPos="200.00" arrivalSpeed="11.18" duration="40.40" routeLength="400.06" waitingTime="2.20" waitingCount="1" stopTime="0.00" timeLoss="1.93" rerouteNo="0" devices="tripinfo_R_78" vType="car5@R_78" speedFactor="1.01" vaporized=""/>
    <tripinfo id="S_74" depart="18.30" departLane="3_0" departPos="8.10" departSpeed="0.00" departDelay="0.30" arrival="64.30" arrivalLane="-1_2" arrivalPos="200.00" arrivalSpeed="11.18" duration="46.00" routeLength="414.30" waitingTime="3.40" waitingCount="4" stopTime="0.00" timeLoss="-4476.91" rerouteNo="0" devices="tripinfo_S_74" vType="car8@S_74" speedFactor="0.96" vaporized=""/>
    <tripinfo id="R_80" depart="22.00" departLane="1_2" departPos="6.10" departSpeed="0.00" departDelay="2.00" arrival="64.80" arrivalLane="-4_0" arrivalPos="200.00" arrivalSpeed="11.18" duration="42.80" routeLength="399.06" waitingTime="2.40" waitingCount="2" stopTime="0.00" timeLoss="4.44" rerouteNo="0" devices="tripinfo_R_80" vType="car6@R_80" speedFactor="1.03" vaporized=""/>
    <tripinfo id="S_63" depart="16.10" departLane="4_1" departPos="6.10" departSpeed="0.00" departDelay="1.10" arrival="65.20" arrivalLane="-2_2" arrivalPos="200.00" arrivalSpeed="11.18" duration="49.10" routeLength="416.30" waitingTime="4.80" waitingCount="4" stopTime="0.00" timeLoss="-4923.90" rerouteNo="0" devices="tripinfo_S_63" vType="car6@S_63" speedFactor="0.99" vaporized=""/>
    <tripinfo id="L_38" depart="9.00" departLane="3_1" departPos="9.10" departSpeed="0.00" departDelay="0.00" arrival="65.30" arrivalLane="-4_2" arrivalPos="200.00" arrivalSpeed="11.18" duration="56.30" routeLength="410.45" waitingTime="4.40" waitingCount="4" stopTime="0.00" timeLoss="16.99" rerouteNo="0" devices="tripinfo_L_38" vType="car9@L_38" speedFactor="1.10" vaporized=""/>
    <tripinfo id="R_107" depart="27.20" departLane="4_0" departPos="5.10" departSpeed="0.00" departDelay="1.20" arrival="65.40" arrivalLane="-3_0" arrivalPos="200.00" arrivalSpeed="11.18" duration="38.20" routeLength="400.06" waitingTime="0.00" waitingCount="0" stopTime="0.00" timeLoss="-0.24" rerouteNo="0" devices="tripinfo_R_107" vType="car5@R_107" speedFactor="1.03" vaporized=""/>
    <tripinfo id="S_65" depart="20.10" departLane="2_0" departPos="8.10" departSpeed="0.00" departDelay="4.10" arrival="66.00" arrivalLane="-4_1" arrivalPos="200.00" arrivalSpeed="11.18" duration="45.90" routeLength="414.30" waitingTime="5.50" waitingCount="2" stopTime="0.00" timeLoss="-4664.62" rerouteNo="0" devices="tripinfo_S_65" vType="car8@S_65" speedFactor="0.88" vaporized=""/>
    <tripinfo id="R_96" depart="30.10" departLane="1_2" departPos="9.10" departSpeed="0.00" departDelay="6.10" arrival="66.60" arrivalLane="-4_0" arrivalPos="200.00" arrivalSpeed="11.18" duration="36.50" routeLength="396.06" waitingTime="0.20" waitingCount="2" stopTime="0.00" timeLoss="-1.64" rerouteNo="0" devices="tripinfo_R_96" vType="car9@R_96" speedFactor="1.01" vaporized=""/>
    <tripinfo id="L_53" depart="14.50" departLane="2_2" departPos="7.10" departSpeed="0.00" departDelay="1.50" arrival="66.90" arrivalLane="-3_2" arrivalPos="200.00" arrivalSpeed="11.18" duration="52.40" routeLength="412.45" waitingTime="5.60" waitingCount="6" stopTime="0.00" timeLoss="-4086.06" rerouteNo="0" devices="tripinfo_L_53" vType="car7@L_53" speedFactor="1.10" vaporized=""/>
    <tripinfo id="L_84" depart="21.00" departLane="1_1" departPos="6.10" departSpeed="0.00" departDelay="0.00" arrival="67.40" arrivalLane="-2_2" arrivalPos="200.00" arrivalSpeed="11.18" duration="46.40" routeLength="413.45" waitingTime="5.10" waitingCount="3" stopTime="0.00" timeLoss="-4826.68" rerouteNo="0" devices="tripinfo_L_84" vType="car6@L_84" speedFactor="1.15" vaporized=""/>
    <tripinfo id="L_64" depart="17.80" departLane="1_2" departPos="7.10" departSpeed="0.00" departDelay="1.80" arrival="68.30" arrivalLane="-2_2" arrivalPos="200.00" arrivalSpeed="11.18" duration="50.50" routeLength="412.45" waitingTime="4.00" waitingCount="4" stopTime="0.00" timeLoss="10.91" rerouteNo="0" devices="tripinfo_L_64" vType="car7@L_64" speedFactor="0.94" vaporized=""/>
    <tripinfo id="L_71" depart="22.40" departLane="4_2" departPos="8.10" departSpeed="0.00" departDelay="5.40" arrival="68.40" arrivalLane="-1_2" arrivalPos="200.00" arrivalSpeed="11.18" duration="46.00" routeLength="411.45" waitingTime="3.50" waitingCount="4" stopTime="0.00" timeLoss="-4570.49" rerouteNo="0" devices="tripinfo_L_71" vType="car8@L_71" speedFactor="0.97" vaporized=""/>