<?xml version="1.0" encoding="UTF-8"?>

<!-- generated on 02/02/21 01:57:54 by Eclipse SUMO GUI Version 1.8.0
<configuration xmlns:xsi="http://www.w3.org/2001/XMLSchema-instance" xsi:noNamespaceSchemaLocation="http://sumo.dlr.de/xsd/sumoConfiguration.xsd">

    <input>
        <net-file value="data/two_inter.net.xml"/>
        <route-files value="data/icacc+.rou.xml"/>
    </input>

    <output>
        <tripinfo-output value="tripinfo.xml"/>
    </output>

    <time>
        <begin value="0"/>
        <step-length value="0.1"/>
    </time>

    <processing>
        <threads value="8"/>
        <collision.mingap-factor value="0"/>
        <time-to-teleport value="-1"/>
        <default.speeddev value="1"/>
    </processing>

    <report>
        <verbose value="true"/>
        <log value="error_log.txt"/>
        <no-step-log value="true"/>
    </report>

    <traci_server>
        <remote-port value="14143"/>
    </traci_server>

    <gui_only>
        <start value="true"/>
        <tracker-interval value="0.1"/>
    </gui_only>

</configuration>
-->

<tripinfos xmlns:xsi="http://www.w3.org/2001/XMLSchema-instance" xsi:noNamespaceSchemaLocation="http://sumo.dlr.de/xsd/tripinfo_file.xsd">
    <tripinfo id="RX_4" depart="0.00" departLane="002_001_4_0" departPos="5.10" departSpeed="11.18" departDelay="0.00" arrival="36.20" arrivalLane="003_001_1_0" arrivalPos="200.00" arrivalSpeed="11.18" duration="36.20" routeLength="403.93" waitingTime="0.00" waitingCount="0" stopTime="0.00" timeLoss="-2.36" rerouteNo="1" devices="tripinfo_RX_4" vType="car5@RX_4" speedFactor="1.30" vaporized=""/>
    <tripinfo id="RX_5" depart="1.00" departLane="001_001_1_0" departPos="7.10" departSpeed="11.18" departDelay="0.00" arrival="37.00" arrivalLane="001_000_2_0" arrivalPos="200.00" arrivalSpeed="11.18" duration="36.00" routeLength="401.93" waitingTime="0.00" waitingCount="0" stopTime="0.00" timeLoss="-2.25" rerouteNo="1" devices="tripinfo_RX_5" vType="car7@RX_5" speedFactor="1.46" vaporized=""/>
    <tripinfo id="SX_1" depart="0.00" departLane="001_001_4_1" departPos="8.10" departSpeed="11.18" departDelay="0.00" arrival="37.50" arrivalLane="001_002_4_2" arrivalPos="200.00" arrivalSpeed="11.18" duration="37.50" routeLength="419.10" waitingTime="0.00" waitingCount="0" stopTime="0.00" timeLoss="0.00" rerouteNo="1" devices="tripinfo_SX_1" vType="car8@SX_1" speedFactor="1.60" vaporized=""/>
    <tripinfo id="LX_3" depart="0.00" departLane="002_001_3_2" departPos="5.10" departSpeed="11.18" departDelay="0.00" arrival="37.50" arrivalLane="002_000_2_2" arrivalPos="200.00" arrivalSpeed="11.18" duration="37.50" routeLength="418.12" waitingTime="0.00" waitingCount="0" stopTime="0.00" timeLoss="-2.36" rerouteNo="1" devices="tripinfo_LX_3" vType="car5@LX_3" speedFactor="1.83" vaporized=""/>
    <tripinfo id="LX_8" depart="1.00" departLane="002_001_2_2" departPos="6.10" departSpeed="11.18" departDelay="0.00" arrival="38.40" arrivalLane="003_001_1_2" arrivalPos="200.00" arrivalSpeed="11.18" duration="37.40" routeLength="417.11" waitingTime="0.00" waitingCount="0" stopTime="0.00" timeLoss="-2.36" rerouteNo="1" devices="tripinfo_LX_8" vType="car6@LX_8" speedFactor="1.26" vaporized=""/>
    <tripinfo id="RX_14" depart="2.00" departLane="002_001_4_0" departPos="9.10" departSpeed="11.18" departDelay="0.00" arrival="38.70" arrivalLane="003_001_1_0" arrivalPos="200.00" arrivalSpeed="11.18" duration="36.70" routeLength="399.93" waitingTime="0.00" waitingCount="0" stopTime="0.00" timeLoss="-3.16" rerouteNo="1" devices="tripinfo_RX_14" vType="car9@RX_14" speedFactor="1.18" vaporized=""/>
    <tripinfo id="RX_10" depart="2.40" departLane="001_001_1_0" departPos="8.10" departSpeed="11.18" departDelay="0.40" arrival="39.20" arrivalLane="001_000_2_2" arrivalPos="200.00" arrivalSpeed="11.18" duration="36.80" routeLength="411.25" waitingTime="0.00" waitingCount="0" stopTime="0.00" timeLoss="-2.31" rerouteNo="1" devices="tripinfo_RX_10" vType="car8@RX_10" speedFactor="1.10" vaporized=""/>
    <tripinfo id="RX_19" depart="3.50" departLane="002_001_4_0" departPos="9.10" departSpeed="11.18" departDelay="0.50" arrival="39.90" arrivalLane="003_001_1_0" arrivalPos="200.00" arrivalSpeed="11.18" duration="36.40" routeLength="399.93" waitingTime="0.00" waitingCount="0" stopTime="0.00" timeLoss="-2.20" rerouteNo="1" devices="tripinfo_RX_19" vType="car9@RX_19" speedFactor="1.05" vaporized=""/>
    <tripinfo id="LX_17" depart="3.00" departLane="001_001_4_2" departPos="6.10" departSpeed="11.18" departDelay="0.00" arrival="40.40" arrivalLane="000_001_3_2" arrivalPos="200.00" arrivalSpeed="11.18" duration="37.40" routeLength="417.11" waitingTime="0.00" waitingCount="0" stopTime="0.00" timeLoss="-2.36" rerouteNo="1" devices="tripinfo_LX_17" vType="car6@LX_17" speedFactor="1.91" vaporized=""/>
    <tripinfo id="RX_25" depart="4.80" departLane="002_001_4_0" departPos="7.10" departSpeed="11.18" departDelay="0.80" arrival="41.10" arrivalLane="003_001_1_0" arrivalPos="200.00" arrivalSpeed="11.18" duration="36.30" routeLength="401.93" waitingTime="0.00" waitingCount="0" stopTime="0.00" timeLoss="-2.10" rerouteNo="1" devices="tripinfo_RX_25" vType="car7@RX_25" speedFactor="1.92" vaporized=""/>
    <tripinfo id="RX_29" depart="5.40" departLane="002_001_3_0" departPos="8.10" departSpeed="11.18" departDelay="0.40" arrival="41.30" arrivalLane="002_002_4_0" arrivalPos="200.00" arrivalSpeed="11.18" duration="35.90" routeLength="400.93" waitingTime="0.00" waitingCount="0" stopTime="0.00" timeLoss="-2.67" rerouteNo="1" devices="tripinfo_RX_29" vType="car8@RX_29" speedFactor="1.00" vaporized=""/>
    <tripinfo id="RX_36" depart="6.30" departLane="002_001_4_0" departPos="9.10" departSpeed="11.18" departDelay="0.30" arrival="42.10" arrivalLane="003_001_1_0" arrivalPos="200.00" arrivalSpeed="11.18" duration="35.80" routeLength="399.93" waitingTime="0.00" waitingCount="0" stopTime="0.00" timeLoss="-2.20" rerouteNo="1" devices="tripinfo_RX_36" vType="car9@RX_36" speedFactor="1.82" vaporized=""/>
    <tripinfo id="LX_18" depart="3.40" departLane="002_001_3_2" departPos="8.10" departSpeed="11.18" departDelay="0.40" arrival="42.20" arrivalLane="002_000_2_2" arrivalPos="200.00" arrivalSpeed="11.18" duration="38.80" routeLength="415.12" waitingTime="0.00" waitingCount="0" stopTime="0.00" timeLoss="-0.77" rerouteNo="1" devices="tripinfo_LX_18" vType="car8@LX_18" speedFactor="1.26" vaporized=""/>
    <tripinfo id="RX_26" depart="5.60" departLane="001_001_2_0" departPos="5.10" departSpeed="11.18" departDelay="0.60" arrival="42.40" arrivalLane="000_001_3_0" arrivalPos="200.00" arrivalSpeed="11.18" duration="36.80" routeLength="403.93" waitingTime="0.00" waitingCount="0" stopTime="0.00" timeLoss="-2.21" rerouteNo="1" devices="tripinfo_RX_26" vType="car5@RX_26" speedFactor="1.38" vaporized=""/>
    <tripinfo id="SX_16" depart="3.00" departLane="001_001_2_1" departPos="6.10" departSpeed="11.18" departDelay="0.00" arrival="42.50" arrivalLane="001_000_2_1" arrivalPos="200.00" arrivalSpeed="11.18" duration="39.50" routeLength="421.10" waitingTime="0.00" waitingCount="0" stopTime="0.00" timeLoss="-0.11" rerouteNo="1" devices="tripinfo_SX_16" vType="car6@SX_16" speedFactor="1.00" vaporized=""/>
    <tripinfo id="RX_35" depart="6.50" departLane="002_001_3_0" departPos="5.10" departSpeed="11.18" departDelay="0.50" arrival="42.70" arrivalLane="002_002_4_0" arrivalPos="200.00" arrivalSpeed="11.18" duration="36.20" routeLength="403.93" waitingTime="0.00" waitingCount="0" stopTime="0.00" timeLoss="-2.47" rerouteNo="1" devices="tripinfo_RX_35" vType="car5@RX_35" speedFactor="1.18" vaporized=""/>
    <tripinfo id="SX_21" depart="4.50" departLane="001_001_2_1" departPos="9.10" departSpeed="11.18" departDelay="0.50" arrival="42.90" arrivalLane="001_000_2_0" arrivalPos="200.00" arrivalSpeed="11.18" duration="38.40" routeLength="418.10" waitingTime="0.00" waitingCount="0" stopTime="0.00" timeLoss="-0.07" rerouteNo="1" devices="tripinfo_SX_21" vType="car9@SX_21" speedFactor="1.20" vaporized=""/>
    <tripinfo id="LX_23" depart="4.00" departLane="002_001_2_2" departPos="9.10" departSpeed="11.18" departDelay="0.00" arrival="43.50" arrivalLane="003_001_1_2" arrivalPos="200.00" arrivalSpeed="11.18" duration="39.50" routeLength="414.11" waitingTime="1.40" waitingCount="1" stopTime="0.00" timeLoss="-4528.85" rerouteNo="1" devices="tripinfo_LX_23" vType="car9@LX_23" speedFactor="1.30" vaporized=""/>
    <tripinfo id="RX_47" depart="8.00" departLane="002_001_3_0" departPos="8.10" departSpeed="11.18" departDelay="0.00" arrival="43.90" arrivalLane="002_002_4_0" arrivalPos="200.00" arrivalSpeed="11.18" duration="35.90" routeLength="400.93" waitingTime="0.00" waitingCount="0" stopTime="0.00" timeLoss="-2.67" rerouteNo="1" devices="tripinfo_RX_47" vType="car8@RX_47" speedFactor="1.00" vaporized=""/>
    <tripinfo id="SX_22" depart="4.00" departLane="001_001_4_1" departPos="9.10" departSpeed="11.18" departDelay="0.00" arrival="44.30" arrivalLane="001_002_4_1" arrivalPos="200.00" arrivalSpeed="11.18" duration="40.30" routeLength="418.10" waitingTime="0.00" waitingCount="0" stopTime="0.00" timeLoss="-0.30" rerouteNo="1" devices="tripinfo_SX_22" vType="car9@SX_22" speedFactor="1.00" vaporized=""/>
    <tripinfo id="RX_37" depart="7.00" departLane="001_001_1_0" departPos="7.10" departSpeed="11.18" departDelay="0.00" arrival="44.30" arrivalLane="001_000_2_0" arrivalPos="200.00" arrivalSpeed="11.18" duration="37.30" routeLength="401.93" waitingTime="0.00" waitingCount="0" stopTime="0.00" timeLoss="-2.66" rerouteNo="1" devices="tripinfo_RX_37" vType="car7@RX_37" speedFactor="1.16" vaporized=""/>
    <tripinfo id="SX_40" depart="7.00" departLane="002_001_2_1" departPos="8.10" departSpeed="11.18" departDelay="0.00" arrival="44.50" arrivalLane="002_000_2_1" arrivalPos="200.00" arrivalSpeed="11.18" duration="37.50" routeLength="419.10" waitingTime="0.00" waitingCount="0" stopTime="0.00" timeLoss="0.00" rerouteNo="1" devices="tripinfo_SX_40" vType="car8@SX_40" speedFactor="1.40" vaporized=""/>
    <tripinfo id="LX_20" depart="4.00" departLane="001_001_1_2" departPos="5.10" departSpeed="11.18" departDelay="0.00" arrival="45.00" arrivalLane="001_002_4_2" arrivalPos="200.00" arrivalSpeed="11.18" duration="41.00" routeLength="418.12" waitingTime="2.60" waitingCount="1" stopTime="0.00" timeLoss="-4061.07" rerouteNo="1" devices="tripinfo_LX_20" vType="car5@LX_20" speedFactor="1.47" vaporized=""/>
    <tripinfo id="SX_30" depart="5.00" departLane="002_001_4_1" departPos="9.10" departSpeed="11.18" departDelay="0.00" arrival="45.00" arrivalLane="002_002_4_2" arrivalPos="200.00" arrivalSpeed="11.18" duration="40.00" routeLength="418.10" waitingTime="1.60" waitingCount="1" stopTime="0.00" timeLoss="-4526.48" rerouteNo="1" devices="tripinfo_SX_30" vType="car9@SX_30" speedFactor="1.17" vaporized=""/>
    <tripinfo id="LX_27" depart="5.00" departLane="001_001_4_2" departPos="7.10" departSpeed="11.18" departDelay="0.00" arrival="45.20" arrivalLane="000_001_3_2" arrivalPos="200.00" arrivalSpeed="11.18" duration="40.20" routeLength="416.11" waitingTime="2.00" waitingCount="1" stopTime="0.00" timeLoss="-4297.94" rerouteNo="1" devices="tripinfo_LX_27" vType="car7@LX_27" speedFactor="1.43" vaporized=""/>
    <tripinfo id="RX_48" depart="9.00" departLane="001_001_1_0" departPos="8.10" departSpeed="11.18" departDelay="0.00" arrival="45.30" arrivalLane="001_000_2_0" arrivalPos="200.00" arrivalSpeed="11.18" duration="36.30" routeLength="400.93" waitingTime="0.00" waitingCount="0" stopTime="0.00" timeLoss="-2.36" rerouteNo="1" devices="tripinfo_RX_48" vType="car8@RX_48" speedFactor="1.32" vaporized=""/>
    <tripinfo id="SX_45" depart="8.00" departLane="001_001_4_1" departPos="5.10" departSpeed="11.18" departDelay="0.00" arrival="45.80" arrivalLane="001_002_4_1" arrivalPos="200.00" arrivalSpeed="11.18" duration="37.80" routeLength="422.10" waitingTime="0.00" waitingCount="0" stopTime="0.00" timeLoss="0.00" rerouteNo="1" devices="tripinfo_SX_45" vType="car5@SX_45" speedFactor="1.56" vaporized=""/>
    <tripinfo id="SX_38" depart="7.00" departLane="001_001_2_1" departPos="6.10" departSpeed="11.18" departDelay="0.00" arrival="47.50" arrivalLane="001_000_2_1" arrivalPos="200.00" arrivalSpeed="11.18" duration="40.50" routeLength="421.10" waitingTime="1.90" waitingCount="1" stopTime="0.00" timeLoss="-4180.09" rerouteNo="1" devices="tripinfo_SX_38" vType="car6@SX_38" speedFactor="1.10" vaporized=""/>
    <tripinfo id="LX_34" depart="6.00" departLane="002_001_2_2" departPos="7.10" departSpeed="11.18" departDelay="0.00" arrival="47.90" arrivalLane="003_001_1_2" arrivalPos="200.00" arrivalSpeed="11.18" duration="41.90" routeLength="416.11" waitingTime="2.50" waitingCount="2" stopTime="0.00" timeLoss="-4836.59" rerouteNo="1" devices="tripinfo_LX_34" vType="car7@LX_34" speedFactor="1.24" vaporized=""/>
    <tripinfo id="RX_63" depart="12.00" departLane="001_001_1_0" departPos="5.10" departSpeed="11.18" departDelay="0.00" arrival="48.20" arrivalLane="001_000_2_0" arrivalPos="200.00" arrivalSpeed="11.18" duration="36.20" routeLength="403.93" waitingTime="0.00" waitingCount="0" stopTime="0.00" timeLoss="-2.20" rerouteNo="1" devices="tripinfo_RX_63" vType="car5@RX_63" speedFactor="1.91" vaporized=""/>
    <tripinfo id="SX_44" depart="8.40" departLane="001_001_2_1" departPos="8.10" departSpeed="11.18" departDelay="0.40" arrival="48.30" arrivalLane="001_000_2_2" arrivalPos="200.00" arrivalSpeed="11.18" duration="39.90" routeLength="419.10" waitingTime="1.20" waitingCount="1" stopTime="0.00" timeLoss="2.42" rerouteNo="1" devices="tripinfo_SX_44" vType="car8@SX_44" speedFactor="1.00" vaporized=""/>
    <tripinfo id="LX_46" depart="8.00" departLane="002_001_2_2" departPos="6.10" departSpeed="11.18" departDelay="0.00" arrival="48.80" arrivalLane="003_001_1_2" arrivalPos="200.00" arrivalSpeed="11.18" duration="40.80" routeLength="417.11" waitingTime="2.40" waitingCount="1" stopTime="0.00" timeLoss="0.96" rerouteNo="1" devices="tripinfo_LX_46" vType="car6@LX_46" speedFactor="1.05" vaporized=""/>
    <tripinfo id="SX_39" depart="7.00" departLane="001_001_4_1" departPos="9.10" departSpeed="11.18" departDelay="0.00" arrival="48.90" arrivalLane="001_002_4_2" arrivalPos="200.00" arrivalSpeed="11.18" duration="41.90" routeLength="418.10" waitingTime="2.30" waitingCount="2" stopTime="0.00" timeLoss="-4837.35" rerouteNo="1" devices="tripinfo_SX_39" vType="car9@SX_39" speedFactor="1.00" vaporized=""/>
    <tripinfo id="SX_60" depart="11.00" departLane="001_001_4_1" departPos="6.10" departSpeed="11.18" departDelay="0.00" arrival="49.10" arrivalLane="001_002_4_1" arrivalPos="200.00" arrivalSpeed="11.18" duration="38.10" routeLength="421.10" waitingTime="0.00" waitingCount="0" stopTime="0.00" timeLoss="-0.01" rerouteNo="1" devices="tripinfo_SX_60" vType="car6@SX_60" speedFactor="1.22" vaporized=""/>
    <tripinfo id="SX_51" depart="9.00" departLane="002_001_4_1" departPos="5.10" departSpeed="11.18" departDelay="0.00" arrival="49.90" arrivalLane="002_002_4_2" arrivalPos="200.00" arrivalSpeed="11.18" duration="40.90" routeLength="422.10" waitingTime="1.80" waitingCount="1" stopTime="0.00" timeLoss="-4547.94" rerouteNo="1" devices="tripinfo_SX_51" vType="car5@SX_51" speedFactor="1.87" vaporized=""/>
    <tripinfo id="RX_79" depart="15.00" departLane="001_001_1_0" departPos="8.10" departSpeed="11.18" departDelay="0.00" arrival="50.90" arrivalLane="001_000_2_0" arrivalPos="200.00" arrivalSpeed="11.18" duration="35.90" routeLength="400.93" waitingTime="0.00" waitingCount="0" stopTime="0.00" timeLoss="-2.21" rerouteNo="1" devices="tripinfo_RX_79" vType="car8@RX_79" speedFactor="1.96" vaporized=""/>
    <tripinfo id="SX_49" depart="9.00" departLane="001_001_2_1" departPos="8.10" departSpeed="11.18" departDelay="0.00" arrival="51.00" arrivalLane="001_000_2_1" arrivalPos="200.00" arrivalSpeed="11.18" duration="42.00" routeLength="419.10" waitingTime="2.30" waitingCount="2" stopTime="0.00" timeLoss="-4970.98" rerouteNo="1" devices="tripinfo_SX_49" vType="car8@SX_49" speedFactor="1.20" vaporized=""/>
    <tripinfo id="SX_71" depart="13.00" departLane="002_001_2_1" departPos="9.10" departSpeed="11.18" departDelay="0.00" arrival="51.00" arrivalLane="002_000_2_1" arrivalPos="200.00" arrivalSpeed="11.18" duration="38.00" routeLength="418.10" waitingTime="0.00" waitingCount="0" stopTime="0.00" timeLoss="-0.01" rerouteNo="1" devices="tripinfo_SX_71" vType="car9@SX_71" speedFactor="1.73" vaporized=""/>
    <tripinfo id="RX_78" depart="14.50" departLane="002_001_4_0" departPos="9.10" departSpeed="11.18" departDelay="0.50" arrival="51.40" arrivalLane="003_001_1_0" arrivalPos="200.00" arrivalSpeed="11.18" duration="36.90" routeLength="399.93" waitingTime="0.10" waitingCount="1" stopTime="0.00" timeLoss="-1.70" rerouteNo="1" devices="tripinfo_RX_78" vType="car9@RX_78" speedFactor="1.09" vaporized=""/>
    <tripinfo id="SX_50" depart="9.10" departLane="001_001_4_1" departPos="5.10" departSpeed="11.18" departDelay="0.10" arrival="51.90" arrivalLane="001_002_4_2" arrivalPos="200.00" arrivalSpeed="11.18" duration="42.80" routeLength="422.10" waitingTime="2.60" waitingCount="2" stopTime="0.00" timeLoss="-4490.04" rerouteNo="1" devices="tripinfo_SX_50" vType="car5@SX_50" speedFactor="1.07" vaporized=""/>
    <tripinfo id="SX_59" depart="11.00" departLane="001_001_2_1" departPos="8.10" departSpeed="11.18" departDelay="0.00" arrival="52.00" arrivalLane="001_000_2_1" arrivalPos="200.00" arrivalSpeed="11.18" duration="41.00" routeLength="419.10" waitingTime="1.70" waitingCount="1" stopTime="0.00" timeLoss="3.42" rerouteNo="1" devices="tripinfo_SX_59" vType="car8@SX_59" speedFactor="1.07" vaporized=""/>
    <tripinfo id="SX_73" depart="13.00" departLane="002_001_4_1" departPos="6.10" departSpeed="11.18" departDelay="0.00" arrival="52.00" arrivalLane="002_002_4_0" arrivalPos="200.00" arrivalSpeed="11.18" duration="39.00" routeLength="421.10" waitingTime="0.40" waitingCount="1" stopTime="0.00" timeLoss="-4180.09" rerouteNo="1" devices="tripinfo_SX_73" vType="car6@SX_73" speedFactor="1.34" vaporized=""/>
    <tripinfo id="SX_57" depart="10.00" departLane="002_001_4_1" departPos="9.10" departSpeed="11.18" departDelay="0.00" arrival="52.20" arrivalLane="002_002_4_1" arrivalPos="200.00" arrivalSpeed="11.18" duration="42.20" routeLength="418.10" waitingTime="0.00" waitingCount="0" stopTime="0.00" timeLoss="-0.80" rerouteNo="1" devices="tripinfo_SX_57" vType="car9@SX_57" speedFactor="1.02" vaporized=""/>
    <tripinfo id="RX_85" depart="16.20" departLane="001_001_1_0" departPos="6.10" departSpeed="11.18" departDelay="0.20" arrival="52.30" arrivalLane="001_000_2_0" arrivalPos="200.00" arrivalSpeed="11.18" duration="36.10" routeLength="402.93" waitingTime="0.00" waitingCount="0" stopTime="0.00" timeLoss="-2.35" rerouteNo="1" devices="tripinfo_RX_85" vType="car6@RX_85" speedFactor="1.31" vaporized=""/>
    <tripinfo id="SX_62" depart="11.40" departLane="002_001_4_1" departPos="8.10" departSpeed="11.18" departDelay="0.40" arrival="53.00" arrivalLane="002_002_4_2" arrivalPos="200.00" arrivalSpeed="11.18" duration="41.60" routeLength="419.10" waitingTime="1.80" waitingCount="2" stopTime="0.00" timeLoss="-4760.53" rerouteNo="1" devices="tripinfo_SX_62" vType="car8@SX_62" speedFactor="1.92" vaporized=""/>
    <tripinfo id="RX_91" depart="17.50" departLane="001_001_1_0" departPos="7.10" departSpeed="11.18" departDelay="0.50" arrival="53.50" arrivalLane="001_000_2_0" arrivalPos="200.00" arrivalSpeed="11.18" duration="36.00" routeLength="401.93" waitingTime="0.00" waitingCount="0" stopTime="0.00" timeLoss="-2.21" rerouteNo="1" devices="tripinfo_RX_91" vType="car7@RX_91" speedFactor="1.68" vaporized=""/>
    <tripinfo id="LX_67" depart="12.00" departLane="002_001_3_2" departPos="5.10" departSpeed="11.18" departDelay="0.00" arrival="53.70" arrivalLane="002_000_2_2" arrivalPos="200.00" arrivalSpeed="11.18" duration="41.70" routeLength="418.12" waitingTime="3.30" waitingCount="1" stopTime="0.00" timeLoss="-4061.07" rerouteNo="1" devices="tripinfo_LX_67" vType="car5@LX_67" speedFactor="1.65" vaporized=""/>
    <tripinfo id="LX_52" depart="10.00" departLane="001_001_1_2" departPos="5.10" departSpeed="11.18" departDelay="0.00" arrival="53.90" arrivalLane="001_002_4_2" arrivalPos="200.00" arrivalSpeed="11.18" duration="43.90" routeLength="418.12" waitingTime="4.40" waitingCount="2" stopTime="0.00" timeLoss="-4655.58" rerouteNo="1" devices="tripinfo_LX_52" vType="car5@LX_52" speedFactor="1.34" vaporized=""/>
    <tripinfo id="LX_54" depart="10.50" departLane="001_001_4_2" departPos="8.10" departSpeed="11.18" departDelay="0.50" arrival="54.20" arrivalLane="000_001_3_2" arrivalPos="200.00" arrivalSpeed="11.18" duration="43.70" routeLength="415.11" waitingTime="3.10" waitingCount="3" stopTime="0.00" timeLoss="-4630.65" rerouteNo="1" devices="tripinfo_LX_54" vType="car8@LX_54" speedFactor="1.17" vaporized=""/>
    <tripinfo id="SX_76" depart="14.10" departLane="002_001_2_1" departPos="5.10" departSpeed="11.18" departDelay="0.10" arrival="54.20" arrivalLane="002_000_2_0" arrivalPos="200.00" arrivalSpeed="11.18" duration="40.10" routeLength="422.10" waitingTime="0.00" waitingCount="0" stopTime="0.00" timeLoss="-0.10" rerouteNo="1" devices="tripinfo_SX_76" vType="car5@SX_76" speedFactor="1.17" vaporized=""/>
    <tripinfo id="LX_77" depart="14.00" departLane="002_001_3_2" departPos="5.10" departSpeed="11.18" departDelay="0.00" arrival="54.40" arrivalLane="002_000_2_2" arrivalPos="200.00" arrivalSpeed="11.18" duration="40.40" routeLength="418.12" waitingTime="1.80" waitingCount="1" stopTime="0.00" timeLoss="0.60" rerouteNo="1" devices="tripinfo_LX_77" vType="car5@LX_77" speedFactor="1.99" vaporized=""/>
    <tripinfo id="SX_94" depart="17.00" departLane="002_001_2_1" departPos="9.10" departSpeed="11.18" departDelay="0.00" arrival="54.40" arrivalLane="002_000_2_1" arrivalPos="200.00" arrivalSpeed="11.18" duration="37.40" routeLength="418.10" waitingTime="0.00" waitingCount="0" stopTime="0.00" timeLoss="0.00" rerouteNo="1" devices="tripinfo_SX_94" vType="car9@SX_94" speedFactor="1.12" vaporized=""/>
    <tripinfo id="LX_61" depart="11.00" departLane="002_001_2_2" departPos="5.10" departSpeed="11.18" departDelay="0.00" arrival="55.00" arrivalLane="003_001_1_2" arrivalPos="200.00" arrivalSpeed="11.18" duration="44.00" routeLength="418.11" waitingTime="4.40" waitingCount="1" stopTime="0.00" timeLoss="-4510.64" rerouteNo="1" devices="tripinfo_LX_61" vType="car5@LX_61" speedFactor="1.17" vaporized=""/>
    <tripinfo id="RX_103" depart="19.00" departLane="001_001_2_0" departPos="8.10" departSpeed="11.18" departDelay="0.00" arrival="55.00" arrivalLane="000_001_3_0" arrivalPos="200.00" arrivalSpeed="11.18" duration="36.00" routeLength="400.93" waitingTime="0.00" waitingCount="0" stopTime="0.00" timeLoss="-2.62" rerouteNo="1" devices="tripinfo_RX_103" vType="car8@RX_103" speedFactor="1.05" vaporized=""/>
    <tripinfo id="RX_102" depart="19.00" departLane="001_001_1_0" departPos="5.10" departSpeed="11.18" departDelay="0.00" arrival="55.20" arrivalLane="001_000_2_0" arrivalPos="200.00" arrivalSpeed="11.18" duration="36.20" routeLength="403.93" waitingTime="0.00" waitingCount="0" stopTime="0.00" timeLoss="-2.67" rerouteNo="1" devices="tripinfo_RX_102" vType="car5@RX_102" speedFactor="1.00" vaporized=""/>
    <tripinfo id="SX_65" depart="12.30" departLane="001_001_4_1" departPos="7.10" departSpeed="11.18" departDelay="0.30" arrival="55.50" arrivalLane="001_002_4_2" arrivalPos="200.00" arrivalSpeed="11.18" duration="43.20" routeLength="420.10" waitingTime="2.20" waitingCount="3" stopTime="0.00" timeLoss="5.51" rerouteNo="1" devices="tripinfo_SX_65" vType="car7@SX_65" speedFactor="1.10" vaporized=""/>
    <tripinfo id="SX_87" depart="16.00" departLane="001_001_4_1" departPos="7.10" departSpeed="11.18" departDelay="0.00" arrival="55.50" arrivalLane="001_002_4_1" arrivalPos="200.00" arrivalSpeed="11.18" duration="39.50" routeLength="420.10" waitingTime="0.00" waitingCount="0" stopTime="0.00" timeLoss="-0.12" rerouteNo="1" devices="tripinfo_SX_87" vType="car7@SX_87" speedFactor="1.61" vaporized=""/>
    <tripinfo id="RX_108" depart="20.10" departLane="001_001_2_0" departPos="5.10" departSpeed="11.18" departDelay="0.10" arrival="56.30" arrivalLane="000_001_3_0" arrivalPos="200.00" arrivalSpeed="11.18" duration="36.20" routeLength="403.93" waitingTime="0.00" waitingCount="0" stopTime="0.00" timeLoss="-2.20" rerouteNo="1" devices="tripinfo_RX_108" vType="car5@RX_108" speedFactor="1.78" vaporized=""/>
    <tripinfo id="SX_64" depart="12.10" departLane="001_001_2_1" departPos="5.10" departSpeed="11.18" departDelay="0.10" arrival="56.70" arrivalLane="001_000_2_2" arrivalPos="200.00" arrivalSpeed="11.18" duration="44.60" routeLength="422.10" waitingTime="4.50" waitingCount="2" stopTime="0.00" timeLoss="-4676.75" rerouteNo="1" devices="tripinfo_SX_64" vType="car5@SX_64" speedFactor="1.57" vaporized=""/>
    <tripinfo id="LX_58" depart="11.50" departLane="001_001_1_2" departPos="9.10" departSpeed="11.18" departDelay="0.50" arrival="56.80" arrivalLane="001_002_4_2" arrivalPos="200.00" arrivalSpeed="11.18" duration="45.30" routeLength="414.12" waitingTime="4.70" waitingCount="3" stopTime="0.00" timeLoss="-4813.42" rerouteNo="1" devices="tripinfo_LX_58" vType="car9@LX_58" speedFactor="1.43" vaporized=""/>
    <tripinfo id="SX_106" depart="19.00" departLane="002_001_4_1" departPos="7.10" departSpeed="11.18" departDelay="0.00" arrival="56.80" arrivalLane="002_002_4_1" arrivalPos="200.00" arrivalSpeed="11.18" duration="37.80" routeLength="420.10" waitingTime="0.00" waitingCount="0" stopTime="0.00" timeLoss="0.00" rerouteNo="1" devices="tripinfo_SX_106" vType="car7@SX_106" speedFactor="1.65" vaporized=""/>
    <tripinfo id="RX_116" depart="21.00" departLane="002_001_3_0" departPos="6.10" departSpeed="11.18" departDelay="0.00" arrival="57.10" arrivalLane="002_002_4_0" arrivalPos="200.00" arrivalSpeed="11.18" duration="36.10" routeLength="402.93" waitingTime="0.00" waitingCount="0" stopTime="0.00" timeLoss="-2.67" rerouteNo="1" devices="tripinfo_RX_116" vType="car6@RX_116" speedFactor="1.00" vaporized=""/>
    <tripinfo id="LX_82" depart="15.00" departLane="002_001_2_2" departPos="9.10" departSpeed="11.18" departDelay="0.00" arrival="57.80" arrivalLane="003_001_1_2" arrivalPos="200.00" arrivalSpeed="11.18" duration="42.80" routeLength="414.11" waitingTime="3.30" waitingCount="2" stopTime="0.00" timeLoss="-5003.25" rerouteNo="1" devices="tripinfo_LX_82" vType="car9@LX_82" speedFactor="1.03" vaporized=""/>
    <tripinfo id="LX_88" depart="16.10" departLane="002_001_2_2" departPos="5.10" departSpeed="11.18" departDelay="0.10" arrival="58.90" arrivalLane="003_001_1_2" arrivalPos="200.00" arrivalSpeed="11.18" duration="42.80" routeLength="418.11" waitingTime="2.70" waitingCount="2" stopTime="0.00" timeLoss="2.94" rerouteNo="1" devices="tripinfo_LX_88" vType="car5@LX_88" speedFactor="1.32" vaporized=""/>
    <tripinfo id="SX_105" depart="19.00" departLane="002_001_2_1" departPos="8.10" departSpeed="11.18" departDelay="0.00" arrival="59.00" arrivalLane="002_000_2_1" arrivalPos="200.00" arrivalSpeed="11.18" duration="40.00" routeLength="419.10" waitingTime="0.00" waitingCount="0" stopTime="0.00" timeLoss="-0.11" rerouteNo="1" devices="tripinfo_SX_105" vType="car8@SX_105" speedFactor="1.00" vaporized=""/>
    <tripinfo id="LX_70" depart="13.40" departLane="001_001_4_2" departPos="5.10" departSpeed="11.18" departDelay="0.40" arrival="59.60" arrivalLane="000_001_3_2" arrivalPos="200.00" arrivalSpeed="11.18" duration="46.20" routeLength="418.11" waitingTime="4.40" waitingCount="3" stopTime="0.00" timeLoss="-4197.77" rerouteNo="1" devices="tripinfo_LX_70" vType="car5@LX_70" speedFactor="1.88" vaporized=""/>
    <tripinfo id="RX_134" depart="25.00" departLane="001_001_1_0" departPos="9.10" departSpeed="11.18" departDelay="0.00" arrival="60.80" arrivalLane="001_000_2_0" arrivalPos="200.00" arrivalSpeed="11.18" duration="35.80" routeLength="399.93" waitingTime="0.00" waitingCount="0" stopTime="0.00" timeLoss="-2.21" rerouteNo="1" devices="tripinfo_RX_134" vType="car9@RX_134" speedFactor="1.65" vaporized=""/>
    <tripinfo id="SR_13" depart="2.00" departLane="002_001_3_1" departPos="5.10" departSpeed="11.18" departDelay="0.00" arrival="61.00" arrivalLane="001_002_4_1" arrivalPos="200.00" arrivalSpeed="11.18" duration="59.00" routeLength="636.29" waitingTime="0.00" waitingCount="0" stopTime="0.00" timeLoss="-2.39" rerouteNo="2" devices="tripinfo_SR_13" vType="car5@SR_13" speedFactor="1.46" vaporized=""/>
    <tripinfo id="RX_135" depart="25.00" departLane="001_001_2_0" departPos="5.10" departSpeed="11.18" departDelay="0.00" arrival="61.20" arrivalLane="000_001_3_0" arrivalPos="200.00" arrivalSpeed="11.18" duration="36.20" routeLength="403.93" waitingTime="0.00" waitingCount="0" stopTime="0.00" timeLoss="-2.67" rerouteNo="1" devices="tripinfo_RX_135" vType="car5@RX_135" speedFactor="1.00" vaporized=""/>
    <tripinfo id="LX_83" depart="15.30" departLane="002_001_3_2" departPos="7.10" departSpeed="11.18" departDelay="0.30" arrival="61.30" arrivalLane="002_000_2_2" arrivalPos="200.00" arrivalSpeed="11.18" duration="46.00" routeLength="416.12" waitingTime="6.30" waitingCount="2" stopTime="0.00" timeLoss="-4870.77" rerouteNo="1" devices="tripinfo_LX_83" vType="car7@LX_83" speedFactor="1.71" vaporized=""/>
    <tripinfo id="SX_80" depart="15.00" departLane="001_001_2_1" departPos="8.10" departSpeed="11.18" departDelay="0.00" arrival="61.50" arrivalLane="001_000_2_1" arrivalPos="200.00" arrivalSpeed="11.18" duration="46.50" routeLength="419.10" waitingTime="7.70" waitingCount="1" stopTime="0.00" timeLoss="-4475.26" rerouteNo="1" devices="tripinfo_SX_80" vType="car8@SX_80" speedFactor="1.96" vaporized=""/>