<?xml version="1.0" encoding="UTF-8"?>

<!-- generated on 07/04/20 16:53:06 by Eclipse SUMO GUI Version 1.6.0
<configuration xmlns:xsi="http://www.w3.org/2001/XMLSchema-instance" xsi:noNamespaceSchemaLocation="http://sumo.dlr.de/xsd/sumoConfiguration.xsd">

    <input>
        <net-file value="data/lane2by2.net.xml"/>
        <route-files value="data/icacc+.rou.xml"/>
    </input>

    <output>
        <tripinfo-output value="tripinfo.xml"/>
    </output>

    <time>
        <begin value="0"/>
        <step-length value="0.1"/>
    </time>

    <processing>
        <collision.mingap-factor value="0"/>
        <time-to-teleport value="-1"/>
        <lanechange.duration value="0.5"/>
    </processing>

    <report>
        <verbose value="true"/>
        <no-step-log value="true"/>
    </report>

    <traci_server>
        <remote-port value="5766"/>
    </traci_server>

    <gui_only>
        <tracker-interval value="0.1"/>
    </gui_only>

</configuration>
-->

<tripinfos xmlns:xsi="http://www.w3.org/2001/XMLSchema-instance" xsi:noNamespaceSchemaLocation="http://sumo.dlr.de/xsd/tripinfo_file.xsd">
    <tripinfo id="car_4" depart="11.00" departLane="001_002_2_1" departPos="8.10" departSpeed="11.18" departDelay="0.00" arrival="83.60" arrivalLane="000_002_3_2" arrivalPos="400.00" arrivalSpeed="11.18" duration="72.60" routeLength="811.25" waitingTime="0.00" waitingCount="0" stopTime="0.00" timeLoss="-0.29" rerouteNo="2" devices="tripinfo_car_4" vType="car8@car_4" speedFactor="1.03" vaporized=""/>
    <tripinfo id="car_6" depart="13.00" departLane="001_002_2_1" departPos="8.10" departSpeed="11.18" departDelay="0.00" arrival="85.60" arrivalLane="000_002_3_2" arrivalPos="400.00" arrivalSpeed="11.18" duration="72.60" routeLength="811.25" waitingTime="0.00" waitingCount="0" stopTime="0.00" timeLoss="-0.26" rerouteNo="2" devices="tripinfo_car_6" vType="car8@car_6" speedFactor="1.05" vaporized=""/>
    <tripinfo id="car_1" depart="4.00" departLane="002_002_3_2" departPos="7.10" departSpeed="11.18" departDelay="0.00" arrival="95.30" arrivalLane="000_002_3_2" arrivalPos="400.00" arrivalSpeed="11.18" duration="91.30" routeLength="1020.10" waitingTime="0.00" waitingCount="0" stopTime="0.00" timeLoss="0.00" rerouteNo="2" devices="tripinfo_car_1" vType="car7@car_1" speedFactor="0.94" vaporized=""/>
    <tripinfo id="car_16" depart="24.00" departLane="001_002_2_1" departPos="9.10" departSpeed="11.18" departDelay="0.00" arrival="95.60" arrivalLane="000_002_3_0" arrivalPos="400.00" arrivalSpeed="11.18" duration="71.60" routeLength="799.93" waitingTime="0.00" waitingCount="0" stopTime="0.00" timeLoss="-0.76" rerouteNo="2" devices="tripinfo_car_16" vType="car9@car_16" speedFactor="0.88" vaporized=""/>
    <tripinfo id="car_15" depart="23.00" departLane="001_001_4_2" departPos="8.10" departSpeed="11.18" departDelay="0.00" arrival="96.00" arrivalLane="000_001_3_2" arrivalPos="400.00" arrivalSpeed="11.18" duration="73.00" routeLength="815.12" waitingTime="0.00" waitingCount="0" stopTime="0.00" timeLoss="-0.41" rerouteNo="2" devices="tripinfo_car_15" vType="car8@car_15" speedFactor="0.93" vaporized=""/>
    <tripinfo id="car_17" depart="24.00" departLane="002_001_3_1" departPos="5.10" departSpeed="11.18" departDelay="0.00" arrival="97.20" arrivalLane="002_000_2_2" arrivalPos="400.00" arrivalSpeed="11.18" duration="73.20" routeLength="818.12" waitingTime="0.00" waitingCount="0" stopTime="0.00" timeLoss="-0.37" rerouteNo="2" devices="tripinfo_car_17" vType="car5@car_17" speedFactor="0.94" vaporized=""/>
    <tripinfo id="car_20" depart="26.00" departLane="002_001_4_2" departPos="8.10" departSpeed="11.18" departDelay="0.00" arrival="97.70" arrivalLane="003_001_1_0" arrivalPos="400.00" arrivalSpeed="11.18" duration="71.70" routeLength="800.93" waitingTime="0.00" waitingCount="0" stopTime="0.00" timeLoss="-0.55" rerouteNo="2" devices="tripinfo_car_20" vType="car8@car_20" speedFactor="1.02" vaporized=""/>
    <tripinfo id="car_3" depart="8.00" departLane="002_002_2_2" departPos="8.10" departSpeed="11.18" departDelay="0.00" arrival="98.00" arrivalLane="000_002_3_2" arrivalPos="400.00" arrivalSpeed="11.18" duration="90.00" routeLength="1006.09" waitingTime="0.00" waitingCount="0" stopTime="0.00" timeLoss="-0.38" rerouteNo="3" devices="tripinfo_car_3" vType="car8@car_3" speedFactor="1.08" vaporized=""/>
    <tripinfo id="car_2" depart="6.00" departLane="001_001_1_1" departPos="6.10" departSpeed="11.18" departDelay="0.00" arrival="98.10" arrivalLane="003_001_1_2" arrivalPos="400.00" arrivalSpeed="11.18" duration="92.10" routeLength="1021.10" waitingTime="0.00" waitingCount="0" stopTime="0.00" timeLoss="-0.02" rerouteNo="2" devices="tripinfo_car_2" vType="car6@car_2" speedFactor="1.01" vaporized=""/>
    <tripinfo id="car_5" depart="12.00" departLane="002_002_3_2" departPos="7.10" departSpeed="11.18" departDelay="0.00" arrival="102.80" arrivalLane="003_001_1_2" arrivalPos="400.00" arrivalSpeed="11.18" duration="90.80" routeLength="1012.14" waitingTime="0.00" waitingCount="0" stopTime="0.00" timeLoss="-5.38" rerouteNo="3" devices="tripinfo_car_5" vType="car7@car_5" speedFactor="0.83" vaporized=""/>
    <tripinfo id="car_8" depart="14.00" departLane="001_002_1_0" departPos="7.10" departSpeed="11.18" departDelay="0.00" arrival="105.30" arrivalLane="003_002_1_1" arrivalPos="400.00" arrivalSpeed="11.18" duration="91.30" routeLength="1020.10" waitingTime="0.00" waitingCount="0" stopTime="0.00" timeLoss="0.00" rerouteNo="2" devices="tripinfo_car_8" vType="car7@car_8" speedFactor="0.94" vaporized=""/>
    <tripinfo id="car_28" depart="33.00" departLane="001_002_1_2" departPos="9.10" departSpeed="11.18" departDelay="0.00" arrival="105.90" arrivalLane="001_003_4_2" arrivalPos="400.00" arrivalSpeed="11.18" duration="72.90" routeLength="814.12" waitingTime="0.00" waitingCount="0" stopTime="0.00" timeLoss="0.00" rerouteNo="2" devices="tripinfo_car_28" vType="car9@car_28" speedFactor="1.13" vaporized=""/>
    <tripinfo id="car_7" depart="13.50" departLane="002_002_3_2" departPos="5.10" departSpeed="11.18" departDelay="0.50" arrival="107.30" arrivalLane="003_001_1_2" arrivalPos="400.00" arrivalSpeed="11.18" duration="93.80" routeLength="1014.14" waitingTime="0.00" waitingCount="0" stopTime="0.00" timeLoss="-5.18" rerouteNo="3" devices="tripinfo_car_7" vType="car5@car_7" speedFactor="0.89" vaporized=""/>
    <tripinfo id="car_14" depart="21.00" departLane="001_001_4_0" departPos="7.10" departSpeed="11.18" departDelay="0.00" arrival="110.70" arrivalLane="003_001_1_1" arrivalPos="400.00" arrivalSpeed="11.18" duration="89.70" routeLength="1001.93" waitingTime="0.00" waitingCount="0" stopTime="0.00" timeLoss="-0.59" rerouteNo="3" devices="tripinfo_car_14" vType="car7@car_14" speedFactor="0.99" vaporized=""/>
    <tripinfo id="car_31" depart="38.00" departLane="002_001_3_2" departPos="5.10" departSpeed="11.18" departDelay="0.00" arrival="111.70" arrivalLane="002_000_2_2" arrivalPos="400.00" arrivalSpeed="11.18" duration="73.70" routeLength="818.12" waitingTime="0.00" waitingCount="0" stopTime="0.00" timeLoss="-0.01" rerouteNo="2" devices="tripinfo_car_31" vType="car5@car_31" speedFactor="1.15" vaporized=""/>
    <tripinfo id="car_0" depart="4.00" departLane="001_001_4_1" departPos="8.10" departSpeed="11.18" departDelay="0.00" arrival="112.00" arrivalLane="002_003_4_2" arrivalPos="400.00" arrivalSpeed="11.18" duration="108.00" routeLength="1202.11" waitingTime="0.00" waitingCount="0" stopTime="0.00" timeLoss="-4.49" rerouteNo="3" devices="tripinfo_car_0" vType="car8@car_0" speedFactor="1.06" vaporized=""/>
    <tripinfo id="car_18" depart="25.60" departLane="001_002_2_1" departPos="6.10" departSpeed="11.18" departDelay="0.60" arrival="116.80" arrivalLane="000_001_3_1" arrivalPos="400.00" arrivalSpeed="11.18" duration="91.20" routeLength="1008.09" waitingTime="0.00" waitingCount="0" stopTime="0.00" timeLoss="-4.72" rerouteNo="2" devices="tripinfo_car_18" vType="car6@car_18" speedFactor="0.94" vaporized=""/>
    <tripinfo id="car_22" depart="28.00" departLane="002_002_2_2" departPos="5.10" departSpeed="11.18" departDelay="0.00" arrival="118.80" arrivalLane="000_002_3_2" arrivalPos="400.00" arrivalSpeed="11.18" duration="90.80" routeLength="1014.25" waitingTime="0.00" waitingCount="0" stopTime="0.00" timeLoss="-0.41" rerouteNo="3" devices="tripinfo_car_22" vType="car5@car_22" speedFactor="0.98" vaporized=""/>
    <tripinfo id="car_21" depart="28.00" departLane="001_001_1_1" departPos="5.10" departSpeed="11.18" departDelay="0.00" arrival="119.20" arrivalLane="001_003_4_0" arrivalPos="400.00" arrivalSpeed="11.18" duration="91.20" routeLength="1018.12" waitingTime="0.00" waitingCount="0" stopTime="0.00" timeLoss="-0.20" rerouteNo="3" devices="tripinfo_car_21" vType="car5@car_21" speedFactor="1.01" vaporized=""/>
    <tripinfo id="car_40" depart="48.00" departLane="001_002_2_2" departPos="5.10" departSpeed="11.18" departDelay="0.00" arrival="120.40" arrivalLane="000_002_3_1" arrivalPos="400.00" arrivalSpeed="11.18" duration="72.40" routeLength="809.09" waitingTime="0.00" waitingCount="0" stopTime="0.00" timeLoss="-0.46" rerouteNo="2" devices="tripinfo_car_40" vType="car5@car_40" speedFactor="1.03" vaporized=""/>
    <tripinfo id="car_23" depart="29.00" departLane="001_002_1_1" departPos="5.10" departSpeed="11.18" departDelay="0.00" arrival="120.50" arrivalLane="003_002_1_1" arrivalPos="400.00" arrivalSpeed="11.18" duration="91.50" routeLength="1022.10" waitingTime="0.00" waitingCount="0" stopTime="0.00" timeLoss="0.00" rerouteNo="2" devices="tripinfo_car_23" vType="car5@car_23" speedFactor="0.89" vaporized=""/>
    <tripinfo id="car_25" depart="29.00" departLane="002_001_4_1" departPos="9.10" departSpeed="11.18" departDelay="0.00" arrival="122.00" arrivalLane="003_002_1_2" arrivalPos="400.00" arrivalSpeed="11.18" duration="93.00" routeLength="1010.25" waitingTime="0.00" waitingCount="0" stopTime="0.00" timeLoss="-5.01" rerouteNo="2" devices="tripinfo_car_25" vType="car9@car_25" speedFactor="0.87" vaporized=""/>
    <tripinfo id="car_26" depart="31.00" departLane="002_002_3_2" departPos="5.10" departSpeed="11.18" departDelay="0.00" arrival="122.50" arrivalLane="000_002_3_2" arrivalPos="400.00" arrivalSpeed="11.18" duration="91.50" routeLength="1022.10" waitingTime="0.00" waitingCount="0" stopTime="0.00" timeLoss="0.00" rerouteNo="2" devices="tripinfo_car_26" vType="car5@car_26" speedFactor="0.92" vaporized=""/>
    <tripinfo id="car_9" depart="15.00" departLane="001_001_4_2" departPos="5.10" departSpeed="11.18" departDelay="0.00" arrival="123.80" arrivalLane="002_003_4_2" arrivalPos="400.00" arrivalSpeed="11.18" duration="108.80" routeLength="1210.27" waitingTime="0.00" waitingCount="0" stopTime="0.00" timeLoss="-5.10" rerouteNo="3" devices="tripinfo_car_9" vType="car5@car_9" speedFactor="0.86" vaporized=""/>
    <tripinfo id="car_10" depart="16.00" departLane="001_002_1_2" departPos="8.10" departSpeed="11.18" departDelay="0.00" arrival="124.10" arrivalLane="002_000_2_2" arrivalPos="400.00" arrivalSpeed="11.18" duration="108.10" routeLength="1206.09" waitingTime="0.00" waitingCount="0" stopTime="0.00" timeLoss="-0.21" rerouteNo="3" devices="tripinfo_car_10" vType="car8@car_10" speedFactor="1.09" vaporized=""/>
    <tripinfo id="car_48" depart="52.60" departLane="001_001_1_0" departPos="6.10" departSpeed="11.18" departDelay="0.60" arrival="124.90" arrivalLane="001_000_2_0" arrivalPos="400.00" arrivalSpeed="11.18" duration="72.30" routeLength="802.93" waitingTime="0.00" waitingCount="0" stopTime="0.00" timeLoss="-0.31" rerouteNo="2" devices="tripinfo_car_48" vType="car6@car_48" speedFactor="0.88" vaporized=""/>
    <tripinfo id="car_29" depart="34.00" departLane="001_001_4_0" departPos="9.10" departSpeed="11.18" departDelay="0.00" arrival="125.10" arrivalLane="001_003_4_2" arrivalPos="400.00" arrivalSpeed="11.18" duration="91.10" routeLength="1018.10" waitingTime="0.00" waitingCount="0" stopTime="0.00" timeLoss="0.00" rerouteNo="2" devices="tripinfo_car_29" vType="car9@car_29" speedFactor="0.93" vaporized=""/>
    <tripinfo id="car_11" depart="18.00" departLane="001_001_4_1" departPos="8.10" departSpeed="11.18" departDelay="0.00" arrival="126.50" arrivalLane="002_003_4_1" arrivalPos="400.00" arrivalSpeed="11.18" duration="108.50" routeLength="1202.11" waitingTime="0.00" waitingCount="0" stopTime="0.00" timeLoss="-0.51" rerouteNo="4" devices="tripinfo_car_11" vType="car8@car_11" speedFactor="1.03" vaporized=""/>
    <tripinfo id="car_30" depart="37.00" departLane="001_002_1_0" departPos="5.10" departSpeed="11.18" departDelay="0.00" arrival="126.80" arrivalLane="000_001_3_1" arrivalPos="400.00" arrivalSpeed="11.18" duration="89.80" routeLength="1001.24" waitingTime="0.00" waitingCount="0" stopTime="0.00" timeLoss="-4.37" rerouteNo="3" devices="tripinfo_car_30" vType="car5@car_30" speedFactor="1.18" vaporized=""/>
    <tripinfo id="car_12" depart="18.00" departLane="001_002_1_0" departPos="6.10" departSpeed="11.18" departDelay="0.00" arrival="127.50" arrivalLane="003_001_1_2" arrivalPos="400.00" arrivalSpeed="11.18" duration="109.50" routeLength="1209.27" waitingTime="0.00" waitingCount="0" stopTime="0.00" timeLoss="-4.32" rerouteNo="3" devices="tripinfo_car_12" vType="car6@car_12" speedFactor="1.05" vaporized=""/>
    <tripinfo id="car_13" depart="20.00" departLane="001_001_1_1" departPos="5.10" departSpeed="11.18" departDelay="0.00" arrival="127.70" arrivalLane="003_002_1_0" arrivalPos="400.00" arrivalSpeed="11.18" duration="107.70" routeLength="1199.95" waitingTime="0.00" waitingCount="0" stopTime="0.00" timeLoss="-4.57" rerouteNo="3" devices="tripinfo_car_13" vType="car5@car_13" speedFactor="1.12" vaporized=""/>
    <tripinfo id="car_33" depart="38.80" departLane="001_002_1_0" departPos="9.10" departSpeed="11.18" departDelay="0.80" arrival="128.30" arrivalLane="000_001_3_0" arrivalPos="400.00" arrivalSpeed="11.18" duration="89.50" routeLength="986.92" waitingTime="0.00" waitingCount="0" stopTime="0.00" timeLoss="-4.76" rerouteNo="3" devices="tripinfo_car_33" vType="car9@car_33" speedFactor="1.17" vaporized=""/>
    <tripinfo id="car_51" depart="56.00" departLane="001_001_4_1" departPos="7.10" departSpeed="11.18" departDelay="0.00" arrival="129.10" arrivalLane="000_001_3_2" arrivalPos="400.00" arrivalSpeed="11.18" duration="73.10" routeLength="816.12" waitingTime="0.00" waitingCount="0" stopTime="0.00" timeLoss="0.00" rerouteNo="2" devices="tripinfo_car_51" vType="car7@car_51" speedFactor="1.17" vaporized=""/>
    <tripinfo id="car_52" depart="56.70" departLane="002_002_2_1" departPos="7.10" departSpeed="11.18" departDelay="0.70" arrival="129.80" arrivalLane="003_002_1_2" arrivalPos="400.00" arrivalSpeed="11.18" duration="73.10" routeLength="816.12" waitingTime="0.00" waitingCount="0" stopTime="0.00" timeLoss="-0.19" rerouteNo="2" devices="tripinfo_car_52" vType="car7@car_52" speedFactor="1.02" vaporized=""/>
    <tripinfo id="car_53" depart="59.00" departLane="002_002_2_1" departPos="8.10" departSpeed="11.18" departDelay="0.00" arrival="132.00" arrivalLane="003_002_1_2" arrivalPos="400.00" arrivalSpeed="11.18" duration="73.00" routeLength="815.12" waitingTime="0.00" waitingCount="0" stopTime="0.00" timeLoss="-0.02" rerouteNo="2" devices="tripinfo_car_53" vType="car8@car_53" speedFactor="1.10" vaporized=""/>
    <tripinfo id="car_35" depart="42.00" departLane="001_001_1_2" departPos="9.10" departSpeed="11.18" departDelay="0.00" arrival="132.70" arrivalLane="000_002_3_2" arrivalPos="400.00" arrivalSpeed="11.18" duration="90.70" routeLength="1010.14" waitingTime="0.00" waitingCount="0" stopTime="0.00" timeLoss="-4.42" rerouteNo="3" devices="tripinfo_car_35" vType="car9@car_35" speedFactor="1.02" vaporized=""/>
    <tripinfo id="car_19" depart="26.00" departLane="002_001_3_2" departPos="5.10" departSpeed="11.18" departDelay="0.00" arrival="133.60" arrivalLane="000_002_3_1" arrivalPos="400.00" arrivalSpeed="11.18" duration="107.60" routeLength="1199.95" waitingTime="0.00" waitingCount="0" stopTime="0.00" timeLoss="-0.40" rerouteNo="4" devices="tripinfo_car_19" vType="car5@car_19" speedFactor="1.16" vaporized=""/>
    <tripinfo id="car_38" depart="44.00" departLane="001_002_2_0" departPos="7.10" departSpeed="11.18" departDelay="0.00" arrival="133.80" arrivalLane="000_001_3_0" arrivalPos="400.00" arrivalSpeed="11.18" duration="89.80" routeLength="1001.93" waitingTime="0.00" waitingCount="0" stopTime="0.00" timeLoss="-4.59" rerouteNo="2" devices="tripinfo_car_38" vType="car7@car_38" speedFactor="1.10" vaporized=""/>
    <tripinfo id="car_39" depart="44.00" departLane="002_001_3_1" departPos="8.10" departSpeed="11.18" departDelay="0.00" arrival="134.00" arrivalLane="002_003_4_2" arrivalPos="400.00" arrivalSpeed="11.18" duration="90.00" routeLength="1006.09" waitingTime="0.00" waitingCount="0" stopTime="0.00" timeLoss="-0.72" rerouteNo="3" devices="tripinfo_car_39" vType="car8@car_39" speedFactor="0.90" vaporized=""/>
    <tripinfo id="car_37" depart="42.00" departLane="002_001_4_1" departPos="5.10" departSpeed="11.18" departDelay="0.00" arrival="134.80" arrivalLane="001_000_2_2" arrivalPos="400.00" arrivalSpeed="11.18" duration="92.80" routeLength="1014.14" waitingTime="0.00" waitingCount="0" stopTime="0.00" timeLoss="-4.35" rerouteNo="3" devices="tripinfo_car_37" vType="car5@car_37" speedFactor="1.18" vaporized=""/>
    <tripinfo id="car_55" depart="61.00" departLane="001_002_1_1" departPos="6.10" departSpeed="11.18" departDelay="0.00" arrival="135.40" arrivalLane="001_003_4_2" arrivalPos="400.00" arrivalSpeed="11.18" duration="74.40" routeLength="817.12" waitingTime="0.00" waitingCount="0" stopTime="0.00" timeLoss="-0.30" rerouteNo="2" devices="tripinfo_car_55" vType="car6@car_55" speedFactor="1.00" vaporized=""/>
    <tripinfo id="car_56" depart="62.00" departLane="002_002_2_0" departPos="8.10" departSpeed="11.18" departDelay="0.00" arrival="136.10" arrivalLane="003_002_1_2" arrivalPos="400.00" arrivalSpeed="11.18" duration="74.10" routeLength="815.12" waitingTime="0.00" waitingCount="0" stopTime="0.00" timeLoss="-0.51" rerouteNo="2" devices="tripinfo_car_56" vType="car8@car_56" speedFactor="0.90" vaporized=""/>
    <tripinfo id="car_24" depart="29.00" departLane="002_002_2_0" departPos="7.10" departSpeed="11.18" departDelay="0.00" arrival="137.70" arrivalLane="001_000_2_2" arrivalPos="400.00" arrivalSpeed="11.18" duration="108.70" routeLength="1203.11" waitingTime="0.00" waitingCount="0" stopTime="0.00" timeLoss="-5.44" rerouteNo="3" devices="tripinfo_car_24" vType="car7@car_24" speedFactor="0.83" vaporized=""/>
    <tripinfo id="car_57" depart="66.00" departLane="002_002_3_2" departPos="6.10" departSpeed="11.18" departDelay="0.00" arrival="138.30" arrivalLane="002_003_4_1" arrivalPos="400.00" arrivalSpeed="11.18" duration="72.30" routeLength="808.09" waitingTime="0.00" waitingCount="0" stopTime="0.00" timeLoss="-0.29" rerouteNo="2" devices="tripinfo_car_57" vType="car6@car_57" speedFactor="1.14" vaporized=""/>
    <tripinfo id="car_44" depart="50.00" departLane="002_002_2_2" departPos="9.10" departSpeed="11.18" departDelay="0.00" arrival="139.50" arrivalLane="000_002_3_1" arrivalPos="400.00" arrivalSpeed="11.18" duration="89.50" routeLength="999.93" waitingTime="0.00" waitingCount="0" stopTime="0.00" timeLoss="-0.52" rerouteNo="3" devices="tripinfo_car_44" vType="car9@car_44" speedFactor="1.04" vaporized=""/>
    <tripinfo id="car_43" depart="50.00" departLane="001_002_1_2" departPos="7.10" departSpeed="11.18" departDelay="0.00" arrival="140.10" arrivalLane="000_001_3_2" arrivalPos="400.00" arrivalSpeed="11.18" duration="90.10" routeLength="1004.40" waitingTime="0.00" waitingCount="0" stopTime="0.00" timeLoss="-4.59" rerouteNo="3" devices="tripinfo_car_43" vType="car7@car_43" speedFactor="1.04" vaporized=""/>
    <tripinfo id="car_47" depart="51.00" departLane="001_001_4_0" departPos="9.10" departSpeed="11.18" departDelay="0.00" arrival="140.20" arrivalLane="002_000_2_0" arrivalPos="400.00" arrivalSpeed="11.18" duration="89.20" routeLength="986.92" waitingTime="0.00" waitingCount="0" stopTime="0.00" timeLoss="-5.62" rerouteNo="3" devices="tripinfo_car_47" vType="car9@car_47" speedFactor="0.90" vaporized=""/>
    <tripinfo id="car_41" depart="49.00" departLane="001_001_1_2" departPos="9.10" departSpeed="11.18" departDelay="0.00" arrival="141.60" arrivalLane="003_001_1_2" arrivalPos="400.00" arrivalSpeed="11.18" duration="92.60" routeLength="1018.10" waitingTime="0.00" waitingCount="0" stopTime="0.00" timeLoss="-0.08" rerouteNo="2" devices="tripinfo_car_41" vType="car9@car_41" speedFactor="0.96" vaporized=""/>
    <tripinfo id="car_27" depart="31.00" departLane="002_001_4_1" departPos="5.10" departSpeed="11.18" departDelay="0.00" arrival="142.10" arrivalLane="001_003_4_0" arrivalPos="400.00" arrivalSpeed="11.18" duration="111.10" routeLength="1209.22" waitingTime="0.00" waitingCount="0" stopTime="0.00" timeLoss="-4.75" rerouteNo="3" devices="tripinfo_car_27" vType="car5@car_27" speedFactor="0.95" vaporized=""/>
    <tripinfo id="car_45" depart="50.00" departLane="002_001_4_1" departPos="5.10" departSpeed="11.18" departDelay="0.00" arrival="142.80" arrivalLane="000_001_3_2" arrivalPos="400.00" arrivalSpeed="11.18" duration="92.80" routeLength="1027.39" waitingTime="0.00" waitingCount="0" stopTime="0.00" timeLoss="-0.02" rerouteNo="3" devices="tripinfo_car_45" vType="car5@car_45" speedFactor="1.09" vaporized=""/>
    <tripinfo id="car_62" depart="71.00" departLane="002_002_2_0" departPos="5.10" departSpeed="11.18" departDelay="0.00" arrival="144.20" arrivalLane="003_002_1_2" arrivalPos="400.00" arrivalSpeed="11.18" duration="73.20" routeLength="818.12" waitingTime="0.00" waitingCount="0" stopTime="0.00" timeLoss="-0.19" rerouteNo="2" devices="tripinfo_car_62" vType="car5@car_62" speedFactor="1.02" vaporized=""/>
    <tripinfo id="car_61" depart="71.00" departLane="001_002_1_0" departPos="6.10" departSpeed="11.18" departDelay="0.00" arrival="145.00" arrivalLane="001_003_4_0" arrivalPos="400.00" arrivalSpeed="11.18" duration="74.00" routeLength="826.39" waitingTime="0.00" waitingCount="0" stopTime="0.00" timeLoss="0.00" rerouteNo="2" devices="tripinfo_car_61" vType="car6@car_61" speedFactor="1.12" vaporized=""/>
    <tripinfo id="car_32" depart="38.00" departLane="001_001_4_0" departPos="6.10" departSpeed="11.18" departDelay="0.00" arrival="145.80" arrivalLane="003_002_1_2" arrivalPos="400.00" arrivalSpeed="11.18" duration="107.80" routeLength="1191.10" waitingTime="0.00" waitingCount="0" stopTime="0.00" timeLoss="-4.96" rerouteNo="4" devices="tripinfo_car_32" vType="car6@car_32" speedFactor="1.01" vaporized=""/>
    <tripinfo id="car_49" depart="55.00" departLane="001_002_1_0" departPos="5.10" departSpeed="11.18" departDelay="0.00" arrival="147.00" arrivalLane="003_002_1_0" arrivalPos="400.00" arrivalSpeed="11.18" duration="92.00" routeLength="1022.10" waitingTime="0.00" waitingCount="0" stopTime="0.00" timeLoss="-0.01" rerouteNo="2" devices="tripinfo_car_49" vType="car5@car_49" speedFactor="0.85" vaporized=""/>
    <tripinfo id="car_63" depart="74.00" departLane="001_001_4_0" departPos="5.10" departSpeed="11.18" departDelay="0.00" arrival="147.20" arrivalLane="000_001_3_2" arrivalPos="400.00" arrivalSpeed="11.18" duration="73.20" routeLength="818.12" waitingTime="0.00" waitingCount="0" stopTime="0.00" timeLoss="-0.26" rerouteNo="2" devices="tripinfo_car_63" vType="car5@car_63" speedFactor="0.99" vaporized=""/>
    <tripinfo id="car_36" depart="42.00" departLane="001_002_1_0" departPos="8.10" departSpeed="11.18" departDelay="0.00" arrival="148.80" arrivalLane="002_000_2_1" arrivalPos="400.00" arrivalSpeed="11.18" duration="106.80" routeLength="1189.10" waitingTime="0.00" waitingCount="0" stopTime="0.00" timeLoss="-5.27" rerouteNo="4" devices="tripinfo_car_36" vType="car8@car_36" speedFactor="0.97" vaporized=""/>
    <tripinfo id="car_64" depart="76.00" departLane="001_001_4_1" departPos="5.10" departSpeed="11.18" departDelay="0.00" arrival="149.20" arrivalLane="000_001_3_2" arrivalPos="400.00" arrivalSpeed="11.18" duration="73.20" routeLength="818.12" waitingTime="0.00" waitingCount="0" stopTime="0.00" timeLoss="-0.38" rerouteNo="2" devices="tripinfo_car_64" vType="car5@car_64" speedFactor="0.94" vaporized=""/>
    <tripinfo id="car_34" depart="41.00" departLane="002_002_3_1" departPos="5.10" departSpeed="11.18" departDelay="0.00" arrival="150.00" arrivalLane="000_001_3_0" arrivalPos="400.00" arrivalSpeed="11.18" duration="109.00" routeLength="1199.95" waitingTime="0.00" waitingCount="0" stopTime="0.00" timeLoss="-4.79" rerouteNo="3" devices="tripinfo_car_34" vType="car5@car_34" speedFactor="0.99" vaporized=""/>
    <tripinfo id="car_54" depart="59.00" departLane="002_002_3_2" departPos="6.10" departSpeed="11.18" departDelay="0.00" arrival="150.50" arrivalLane="001_003_4_2" arrivalPos="400.00" arrivalSpeed="11.18" duration="91.50" routeLength="1013.25" waitingTime="0.00" waitingCount="0" stopTime="0.00" timeLoss="-4.39" rerouteNo="2" devices="tripinfo_car_54" vType="car6@car_54" speedFactor="1.00" vaporized=""/>
    <tripinfo id="car_67" depart="78.00" departLane="002_002_2_2" departPos="5.10" departSpeed="11.18" departDelay="0.00" arrival="151.20" arrivalLane="003_002_1_2" arrivalPos="400.00" arrivalSpeed="11.18" duration="73.20" routeLength="818.12" waitingTime="0.00" waitingCount="0" stopTime="0.00" timeLoss="-0.44" rerouteNo="2" devices="tripinfo_car_67" vType="car5@car_67" speedFactor="0.91" vaporized=""/>
    <tripinfo id="car_66" depart="78.00" departLane="002_001_3_2" departPos="9.10" departSpeed="11.18" departDelay="0.00" arrival="151.90" arrivalLane="002_000_2_2" arrivalPos="400.00" arrivalSpeed="11.18" duration="73.90" routeLength="814.12" waitingTime="0.00" waitingCount="0" stopTime="0.00" timeLoss="-0.49" rerouteNo="2" devices="tripinfo_car_66" vType="car9@car_66" speedFactor="0.91" vaporized=""/>
    <tripinfo id="car_70" depart="81.00" departLane="002_002_2_0" departPos="8.10" departSpeed="11.18" departDelay="0.00" arrival="154.00" arrivalLane="003_002_1_2" arrivalPos="400.00" arrivalSpeed="11.18" duration="73.00" routeLength="815.12" waitingTime="0.00" waitingCount="0" stopTime="0.00" timeLoss="-0.17" rerouteNo="2" devices="tripinfo_car_70" vType="car8@car_70" speedFactor="1.02" vaporized=""/>
    <tripinfo id="car_58" depart="66.00" departLane="002_001_4_0" departPos="8.10" departSpeed="11.18" departDelay="0.00" arrival="156.90" arrivalLane="000_001_3_2" arrivalPos="400.00" arrivalSpeed="11.18" duration="90.90" routeLength="1015.12" waitingTime="0.00" waitingCount="0" stopTime="0.00" timeLoss="-0.17" rerouteNo="3" devices="tripinfo_car_58" vType="car8@car_58" speedFactor="1.02" vaporized=""/>
    <tripinfo id="car_59" depart="67.00" departLane="002_001_3_0" departPos="7.10" departSpeed="11.18" departDelay="0.00" arrival="158.60" arrivalLane="000_001_3_2" arrivalPos="400.00" arrivalSpeed="11.18" duration="91.60" routeLength="1020.10" waitingTime="0.00" waitingCount="0" stopTime="0.00" timeLoss="-0.00" rerouteNo="2" devices="tripinfo_car_59" vType="car7@car_59" speedFactor="0.97" vaporized=""/>
    <tripinfo id="car_42" depart="50.00" departLane="001_001_4_2" departPos="8.10" departSpeed="11.18" departDelay="0.00" arrival="159.80" arrivalLane="003_002_1_1" arrivalPos="400.00" arrivalSpeed="11.18" duration="109.80" routeLength="1211.25" waitingTime="0.00" waitingCount="0" stopTime="0.00" timeLoss="-0.07" rerouteNo="3" devices="tripinfo_car_42" vType="car8@car_42" speedFactor="1.09" vaporized=""/>
    <tripinfo id="car_46" depart="51.00" departLane="001_001_1_0" departPos="6.10" departSpeed="11.18" departDelay="0.00" arrival="162.20" arrivalLane="002_003_4_0" arrivalPos="400.00" arrivalSpeed="11.18" duration="111.20" routeLength="1213.51" waitingTime="0.00" waitingCount="0" stopTime="0.00" timeLoss="-4.86" rerouteNo="4" devices="tripinfo_car_46" vType="car6@car_46" speedFactor="1.00" vaporized=""/>
    <tripinfo id="car_75" depart="90.00" departLane="002_001_4_0" departPos="8.10" departSpeed="11.18" departDelay="0.00" arrival="162.60" arrivalLane="003_001_1_2" arrivalPos="400.00" arrivalSpeed="11.18" duration="72.60" routeLength="811.25" waitingTime="0.00" waitingCount="0" stopTime="0.00" timeLoss="-0.38" rerouteNo="2" devices="tripinfo_car_75" vType="car8@car_75" speedFactor="0.98" vaporized=""/>
    <tripinfo id="car_73" depart="87.00" departLane="002_002_2_1" departPos="6.10" departSpeed="11.18" departDelay="0.00" arrival="163.10" arrivalLane="003_002_1_0" arrivalPos="400.00" arrivalSpeed="11.18" duration="76.10" routeLength="826.39" waitingTime="0.00" waitingCount="0" stopTime="0.00" timeLoss="-0.15" rerouteNo="2" devices="tripinfo_car_73" vType="car6@car_73" speedFactor="1.06" vaporized=""/>
    <tripinfo id="car_50" depart="55.00" departLane="002_002_2_1" departPos="5.10" departSpeed="11.18" departDelay="0.00" arrival="165.60" arrivalLane="001_000_2_2" arrivalPos="400.00" arrivalSpeed="11.18" duration="110.60" routeLength="1199.95" waitingTime="0.00" waitingCount="0" stopTime="0.00" timeLoss="-1.41" rerouteNo="4" devices="tripinfo_car_50" vType="car5@car_50" speedFactor="0.85" vaporized=""/>
    <tripinfo id="car_68" depart="79.00" departLane="001_002_2_2" departPos="7.10" departSpeed="11.18" departDelay="0.00" arrival="170.30" arrivalLane="001_000_2_2" arrivalPos="400.00" arrivalSpeed="11.18" duration="91.30" routeLength="1020.10" waitingTime="0.00" waitingCount="0" stopTime="0.00" timeLoss="0.00" rerouteNo="2" devices="tripinfo_car_68" vType="car7@car_68" speedFactor="1.04" vaporized=""/>