<?xml version="1.0" encoding="UTF-8"?>

<!-- generated on 07/29/20 12:25:04 by Eclipse SUMO GUI Version 1.6.0
<configuration xmlns:xsi="http://www.w3.org/2001/XMLSchema-instance" xsi:noNamespaceSchemaLocation="http://sumo.dlr.de/xsd/sumoConfiguration.xsd">

    <input>
        <net-file value="data/net/lane2by2.net.xml"/>
        <route-files value="data/routes/2_0.9_4.rou.xml"/>
    </input>

    <output>
        <tripinfo-output value="tripinfo.xml"/>
    </output>

    <time>
        <begin value="0"/>
        <step-length value="0.2"/>
    </time>

    <processing>
        <collision.mingap-factor value="0"/>
        <time-to-teleport value="-1"/>
        <lanechange.duration value="0.5"/>
    </processing>

    <report>
        <verbose value="true"/>
        <no-step-log value="true"/>
    </report>

    <traci_server>
        <remote-port value="8781"/>
    </traci_server>

    <gui_only>
        <start value="true"/>
        <tracker-interval value="0.2"/>
    </gui_only>

</configuration>
-->

<tripinfos xmlns:xsi="http://www.w3.org/2001/XMLSchema-instance" xsi:noNamespaceSchemaLocation="http://sumo.dlr.de/xsd/tripinfo_file.xsd">
    <tripinfo id="car_4" depart="0.00" departLane="001_002_1_0" departPos="9.10" departSpeed="11.18" departDelay="0.00" arrival="73.80" arrivalLane="001_003_4_2" arrivalPos="400.00" arrivalSpeed="11.18" duration="73.80" routeLength="814.12" waitingTime="0.00" waitingCount="0" stopTime="0.00" timeLoss="-0.19" rerouteNo="2" devices="tripinfo_car_4" vType="car9@car_4" speedFactor="1.03" vaporized=""/>
    <tripinfo id="car_20" depart="4.00" departLane="001_002_2_0" departPos="9.10" departSpeed="11.18" departDelay="1.00" arrival="75.60" arrivalLane="000_002_3_0" arrivalPos="400.00" arrivalSpeed="11.18" duration="71.60" routeLength="799.93" waitingTime="0.00" waitingCount="0" stopTime="0.00" timeLoss="-0.55" rerouteNo="2" devices="tripinfo_car_20" vType="car9@car_20" speedFactor="1.02" vaporized=""/>
    <tripinfo id="car_19" depart="4.00" departLane="001_001_1_1" departPos="8.10" departSpeed="11.18" departDelay="1.00" arrival="76.40" arrivalLane="001_000_2_1" arrivalPos="400.00" arrivalSpeed="11.18" duration="72.40" routeLength="806.09" waitingTime="0.00" waitingCount="0" stopTime="0.00" timeLoss="0.00" rerouteNo="2" devices="tripinfo_car_19" vType="car8@car_19" speedFactor="1.16" vaporized=""/>
    <tripinfo id="car_38" depart="6.00" departLane="001_001_1_0" departPos="8.10" departSpeed="11.18" departDelay="0.00" arrival="78.80" arrivalLane="001_000_2_0" arrivalPos="400.00" arrivalSpeed="11.18" duration="72.80" routeLength="800.93" waitingTime="0.00" waitingCount="0" stopTime="0.00" timeLoss="0.53" rerouteNo="2" devices="tripinfo_car_38" vType="car8@car_38" speedFactor="1.10" vaporized=""/>
    <tripinfo id="car_32" depart="6.00" departLane="001_001_1_1" departPos="9.10" departSpeed="11.18" departDelay="1.00" arrival="80.60" arrivalLane="001_000_2_1" arrivalPos="400.00" arrivalSpeed="11.18" duration="74.60" routeLength="805.09" waitingTime="0.00" waitingCount="0" stopTime="0.00" timeLoss="-0.31" rerouteNo="2" devices="tripinfo_car_32" vType="car9@car_32" speedFactor="1.01" vaporized=""/>
    <tripinfo id="car_41" depart="6.00" departLane="001_001_4_2" departPos="5.10" departSpeed="11.18" departDelay="0.00" arrival="80.80" arrivalLane="000_001_3_2" arrivalPos="400.00" arrivalSpeed="11.18" duration="74.80" routeLength="818.11" waitingTime="0.00" waitingCount="0" stopTime="0.00" timeLoss="-0.26" rerouteNo="2" devices="tripinfo_car_41" vType="car5@car_41" speedFactor="1.02" vaporized=""/>
    <tripinfo id="car_52" depart="8.60" departLane="002_001_3_0" departPos="5.10" departSpeed="11.18" departDelay="0.60" arrival="82.40" arrivalLane="002_000_2_1" arrivalPos="400.00" arrivalSpeed="11.18" duration="73.80" routeLength="823.00" waitingTime="0.00" waitingCount="0" stopTime="0.00" timeLoss="0.00" rerouteNo="2" devices="tripinfo_car_52" vType="car5@car_52" speedFactor="1.02" vaporized=""/>
    <tripinfo id="car_74" depart="12.00" departLane="001_002_2_1" departPos="9.10" departSpeed="11.18" departDelay="0.00" arrival="83.60" arrivalLane="000_002_3_0" arrivalPos="400.00" arrivalSpeed="11.18" duration="71.60" routeLength="799.93" waitingTime="0.00" waitingCount="0" stopTime="0.00" timeLoss="-0.57" rerouteNo="2" devices="tripinfo_car_74" vType="car9@car_74" speedFactor="1.00" vaporized=""/>
    <tripinfo id="car_72" depart="12.60" departLane="002_002_3_0" departPos="9.10" departSpeed="11.18" departDelay="1.60" arrival="84.20" arrivalLane="002_003_4_0" arrivalPos="400.00" arrivalSpeed="11.18" duration="71.60" routeLength="799.93" waitingTime="0.00" waitingCount="0" stopTime="0.00" timeLoss="-0.55" rerouteNo="2" devices="tripinfo_car_72" vType="car9@car_72" speedFactor="1.02" vaporized=""/>
    <tripinfo id="car_54" depart="8.60" departLane="001_002_1_1" departPos="5.10" departSpeed="11.18" departDelay="0.60" arrival="86.40" arrivalLane="001_003_4_1" arrivalPos="400.00" arrivalSpeed="11.18" duration="77.80" routeLength="823.00" waitingTime="3.40" waitingCount="1" stopTime="0.00" timeLoss="-2885.09" rerouteNo="2" devices="tripinfo_car_54" vType="car5@car_54" speedFactor="1.00" vaporized=""/>
    <tripinfo id="car_88" depart="14.00" departLane="002_001_3_0" departPos="5.10" departSpeed="11.18" departDelay="0.00" arrival="89.00" arrivalLane="002_000_2_0" arrivalPos="400.00" arrivalSpeed="11.18" duration="75.00" routeLength="827.39" waitingTime="0.00" waitingCount="0" stopTime="0.00" timeLoss="-0.02" rerouteNo="2" devices="tripinfo_car_88" vType="car5@car_88" speedFactor="1.01" vaporized=""/>
    <tripinfo id="car_94" depart="16.00" departLane="002_001_3_0" departPos="8.10" departSpeed="11.18" departDelay="1.00" arrival="89.80" arrivalLane="002_000_2_0" arrivalPos="400.00" arrivalSpeed="11.18" duration="73.80" routeLength="824.39" waitingTime="0.00" waitingCount="0" stopTime="0.00" timeLoss="0.05" rerouteNo="2" devices="tripinfo_car_94" vType="car8@car_94" speedFactor="1.09" vaporized=""/>
    <tripinfo id="car_92" depart="15.00" departLane="001_001_1_1" departPos="5.10" departSpeed="11.18" departDelay="0.00" arrival="90.00" arrivalLane="001_000_2_2" arrivalPos="400.00" arrivalSpeed="11.18" duration="75.00" routeLength="814.25" waitingTime="1.20" waitingCount="1" stopTime="0.00" timeLoss="1.78" rerouteNo="2" devices="tripinfo_car_92" vType="car5@car_92" speedFactor="1.04" vaporized=""/>
    <tripinfo id="car_3" depart="0.00" departLane="001_001_4_0" departPos="5.10" departSpeed="11.18" departDelay="0.00" arrival="91.60" arrivalLane="002_000_2_0" arrivalPos="400.00" arrivalSpeed="11.18" duration="91.60" routeLength="1012.96" waitingTime="0.00" waitingCount="0" stopTime="0.00" timeLoss="-5.15" rerouteNo="3" devices="tripinfo_car_3" vType="car5@car_3" speedFactor="1.08" vaporized=""/>
    <tripinfo id="car_11" depart="1.00" departLane="002_002_2_1" departPos="5.10" departSpeed="11.18" departDelay="0.00" arrival="91.80" arrivalLane="001_003_4_0" arrivalPos="400.00" arrivalSpeed="11.18" duration="90.80" routeLength="1012.96" waitingTime="0.00" waitingCount="0" stopTime="0.00" timeLoss="-5.26" rerouteNo="3" devices="tripinfo_car_11" vType="car5@car_11" speedFactor="1.03" vaporized=""/>
    <tripinfo id="car_113" depart="18.00" departLane="002_002_3_1" departPos="5.10" departSpeed="11.18" departDelay="0.00" arrival="95.20" arrivalLane="002_003_4_1" arrivalPos="400.00" arrivalSpeed="11.18" duration="77.20" routeLength="809.09" waitingTime="2.40" waitingCount="2" stopTime="0.00" timeLoss="4.21" rerouteNo="2" devices="tripinfo_car_113" vType="car5@car_113" speedFactor="1.01" vaporized=""/>
    <tripinfo id="car_120" depart="20.00" departLane="001_001_1_0" departPos="9.10" departSpeed="11.18" departDelay="0.00" arrival="95.60" arrivalLane="001_000_2_0" arrivalPos="400.00" arrivalSpeed="11.18" duration="75.60" routeLength="799.93" waitingTime="0.00" waitingCount="0" stopTime="0.00" timeLoss="3.45" rerouteNo="2" devices="tripinfo_car_120" vType="car9@car_120" speedFactor="1.00" vaporized=""/>
    <tripinfo id="car_23" depart="5.20" departLane="001_002_1_0" departPos="6.10" departSpeed="11.18" departDelay="2.20" arrival="95.80" arrivalLane="000_001_3_0" arrivalPos="400.00" arrivalSpeed="11.18" duration="90.60" routeLength="1011.96" waitingTime="0.00" waitingCount="0" stopTime="0.00" timeLoss="-5.27" rerouteNo="3" devices="tripinfo_car_23" vType="car6@car_23" speedFactor="1.03" vaporized=""/>
    <tripinfo id="car_35" depart="5.00" departLane="001_001_4_1" departPos="6.10" departSpeed="11.18" departDelay="0.00" arrival="96.60" arrivalLane="002_000_2_0" arrivalPos="400.00" arrivalSpeed="11.18" duration="91.60" routeLength="1017.12" waitingTime="0.00" waitingCount="0" stopTime="0.00" timeLoss="-5.18" rerouteNo="3" devices="tripinfo_car_35" vType="car6@car_35" speedFactor="1.02" vaporized=""/>
    <tripinfo id="car_30" depart="4.00" departLane="002_002_2_0" departPos="6.10" departSpeed="11.18" departDelay="0.00" arrival="96.80" arrivalLane="000_002_3_1" arrivalPos="400.00" arrivalSpeed="11.18" duration="92.80" routeLength="1030.13" waitingTime="0.00" waitingCount="0" stopTime="0.00" timeLoss="-0.37" rerouteNo="3" devices="tripinfo_car_30" vType="car6@car_30" speedFactor="1.18" vaporized=""/>
    <tripinfo id="car_114" depart="19.00" departLane="001_001_1_2" departPos="6.10" departSpeed="11.18" departDelay="0.00" arrival="97.00" arrivalLane="001_000_2_2" arrivalPos="400.00" arrivalSpeed="11.18" duration="78.00" routeLength="813.25" waitingTime="3.20" waitingCount="2" stopTime="0.00" timeLoss="-3365.75" rerouteNo="2" devices="tripinfo_car_114" vType="car6@car_114" speedFactor="1.10" vaporized=""/>
    <tripinfo id="car_16" depart="2.00" departLane="001_001_4_0" departPos="8.10" departSpeed="11.18" departDelay="0.00" arrival="97.20" arrivalLane="001_003_4_1" arrivalPos="400.00" arrivalSpeed="11.18" duration="95.20" routeLength="1046.30" waitingTime="0.00" waitingCount="0" stopTime="0.00" timeLoss="-0.06" rerouteNo="2" devices="tripinfo_car_16" vType="car8@car_16" speedFactor="1.00" vaporized=""/>
    <tripinfo id="car_0" depart="0.00" departLane="001_001_1_1" departPos="5.10" departSpeed="11.18" departDelay="0.00" arrival="97.40" arrivalLane="000_002_3_2" arrivalPos="400.00" arrivalSpeed="11.18" duration="97.40" routeLength="1041.33" waitingTime="0.00" waitingCount="0" stopTime="0.00" timeLoss="-5.67" rerouteNo="3" devices="tripinfo_car_0" vType="car5@car_0" speedFactor="1.06" vaporized=""/>
    <tripinfo id="car_156" depart="25.00" departLane="002_002_3_1" departPos="8.10" departSpeed="11.18" departDelay="0.00" arrival="99.20" arrivalLane="002_003_4_1" arrivalPos="400.00" arrivalSpeed="11.18" duration="74.20" routeLength="806.09" waitingTime="1.20" waitingCount="1" stopTime="0.00" timeLoss="1.77" rerouteNo="2" devices="tripinfo_car_156" vType="car8@car_156" speedFactor="1.18" vaporized=""/>
    <tripinfo id="car_8" depart="2.00" departLane="002_001_3_1" departPos="9.10" departSpeed="11.18" departDelay="1.00" arrival="100.40" arrivalLane="001_000_2_2" arrivalPos="400.00" arrivalSpeed="11.18" duration="98.40" routeLength="1041.32" waitingTime="4.00" waitingCount="1" stopTime="0.00" timeLoss="-4677.29" rerouteNo="2" devices="tripinfo_car_8" vType="car9@car_8" speedFactor="1.08" vaporized=""/>
    <tripinfo id="car_47" depart="7.20" departLane="001_001_4_0" departPos="7.10" departSpeed="11.18" departDelay="0.20" arrival="100.60" arrivalLane="002_000_2_2" arrivalPos="400.00" arrivalSpeed="11.18" duration="93.40" routeLength="1021.28" waitingTime="0.60" waitingCount="1" stopTime="0.00" timeLoss="-3.33" rerouteNo="3" devices="tripinfo_car_47" vType="car7@car_47" speedFactor="1.00" vaporized=""/>
    <tripinfo id="car_53" depart="9.20" departLane="001_001_4_0" departPos="8.10" departSpeed="11.18" departDelay="1.20" arrival="100.60" arrivalLane="002_000_2_0" arrivalPos="400.00" arrivalSpeed="11.18" duration="91.40" routeLength="1009.96" waitingTime="0.00" waitingCount="0" stopTime="0.00" timeLoss="-4.14" rerouteNo="3" devices="tripinfo_car_53" vType="car8@car_53" speedFactor="1.10" vaporized=""/>
    <tripinfo id="car_173" depart="29.60" departLane="001_002_2_0" departPos="5.10" departSpeed="11.18" departDelay="0.60" arrival="101.60" arrivalLane="000_002_3_0" arrivalPos="400.00" arrivalSpeed="11.18" duration="72.00" routeLength="803.93" waitingTime="0.00" waitingCount="0" stopTime="0.00" timeLoss="-0.40" rerouteNo="2" devices="tripinfo_car_173" vType="car5@car_173" speedFactor="1.14" vaporized=""/>
    <tripinfo id="car_14" depart="2.00" departLane="001_002_2_0" departPos="8.10" departSpeed="11.18" departDelay="0.00" arrival="102.00" arrivalLane="003_002_1_2" arrivalPos="400.00" arrivalSpeed="11.18" duration="100.00" routeLength="1051.59" waitingTime="5.00" waitingCount="1" stopTime="0.00" timeLoss="-4384.54" rerouteNo="3" devices="tripinfo_car_14" vType="car8@car_14" speedFactor="1.00" vaporized=""/>
    <tripinfo id="car_55" depart="9.00" departLane="002_002_3_0" departPos="8.10" departSpeed="11.18" departDelay="1.00" arrival="102.00" arrivalLane="001_003_4_0" arrivalPos="400.00" arrivalSpeed="11.18" duration="93.00" routeLength="1028.13" waitingTime="0.00" waitingCount="0" stopTime="0.00" timeLoss="-3.89" rerouteNo="2" devices="tripinfo_car_55" vType="car8@car_55" speedFactor="1.00" vaporized=""/>
    <tripinfo id="car_43" depart="7.00" departLane="002_002_3_0" departPos="9.10" departSpeed="11.18" departDelay="1.00" arrival="103.00" arrivalLane="003_001_1_2" arrivalPos="400.00" arrivalSpeed="11.18" duration="96.00" routeLength="1046.60" waitingTime="0.00" waitingCount="0" stopTime="0.00" timeLoss="-4.69" rerouteNo="3" devices="tripinfo_car_43" vType="car9@car_43" speedFactor="1.04" vaporized=""/>
    <tripinfo id="car_142" depart="23.00" departLane="001_001_4_2" departPos="9.10" departSpeed="11.18" departDelay="0.00" arrival="103.20" arrivalLane="000_001_3_2" arrivalPos="400.00" arrivalSpeed="11.18" duration="80.20" routeLength="814.11" waitingTime="6.60" waitingCount="1" stopTime="0.00" timeLoss="-3298.08" rerouteNo="2" devices="tripinfo_car_142" vType="car9@car_142" speedFactor="1.00" vaporized=""/>
    <tripinfo id="car_117" depart="19.60" departLane="001_001_4_0" departPos="5.10" departSpeed="11.18" departDelay="0.60" arrival="104.40" arrivalLane="000_001_3_2" arrivalPos="400.00" arrivalSpeed="11.18" duration="84.80" routeLength="818.11" waitingTime="4.20" waitingCount="1" stopTime="0.00" timeLoss="11.38" rerouteNo="2" devices="tripinfo_car_117" vType="car5@car_117" speedFactor="1.00" vaporized=""/>
    <tripinfo id="car_21" depart="3.60" departLane="002_001_3_1" departPos="5.10" departSpeed="11.18" departDelay="0.60" arrival="105.00" arrivalLane="001_000_2_2" arrivalPos="400.00" arrivalSpeed="11.18" duration="101.40" routeLength="1045.32" waitingTime="5.80" waitingCount="2" stopTime="0.00" timeLoss="-3469.68" rerouteNo="2" devices="tripinfo_car_21" vType="car5@car_21" speedFactor="1.01" vaporized=""/>
    <tripinfo id="car_65" depart="10.00" departLane="001_001_4_2" departPos="5.10" departSpeed="11.18" departDelay="0.00" arrival="105.00" arrivalLane="002_000_2_0" arrivalPos="400.00" arrivalSpeed="11.18" duration="95.00" routeLength="1018.12" waitingTime="0.00" waitingCount="0" stopTime="0.00" timeLoss="-2.93" rerouteNo="3" devices="tripinfo_car_65" vType="car5@car_65" speedFactor="1.15" vaporized=""/>
    <tripinfo id="car_27" depart="4.00" departLane="002_001_3_2" departPos="7.10" departSpeed="11.18" departDelay="0.00" arrival="105.80" arrivalLane="002_003_4_1" arrivalPos="400.00" arrivalSpeed="11.18" duration="101.80" routeLength="1039.45" waitingTime="0.00" waitingCount="0" stopTime="0.00" timeLoss="-4.71" rerouteNo="3" devices="tripinfo_car_27" vType="car7@car_27" speedFactor="1.00" vaporized=""/>
    <tripinfo id="car_34" depart="5.80" departLane="002_001_3_2" departPos="6.10" departSpeed="11.18" departDelay="0.80" arrival="105.80" arrivalLane="001_000_2_2" arrivalPos="400.00" arrivalSpeed="11.18" duration="100.00" routeLength="1044.32" waitingTime="4.40" waitingCount="2" stopTime="0.00" timeLoss="1.96" rerouteNo="2" devices="tripinfo_car_34" vType="car6@car_34" speedFactor="1.00" vaporized=""/>
    <tripinfo id="car_7" depart="2.00" departLane="001_002_2_2" departPos="9.10" departSpeed="11.18" departDelay="1.00" arrival="106.80" arrivalLane="003_002_1_2" arrivalPos="400.00" arrivalSpeed="11.18" duration="104.80" routeLength="1046.20" waitingTime="7.20" waitingCount="2" stopTime="0.00" timeLoss="-4674.39" rerouteNo="3" devices="tripinfo_car_7" vType="car9@car_7" speedFactor="1.01" vaporized=""/>
    <tripinfo id="car_29" depart="4.00" departLane="001_002_1_2" departPos="9.10" departSpeed="11.18" departDelay="0.00" arrival="107.60" arrivalLane="002_003_4_2" arrivalPos="400.00" arrivalSpeed="11.18" duration="103.60" routeLength="1041.32" waitingTime="8.00" waitingCount="3" stopTime="0.00" timeLoss="-3294.08" rerouteNo="2" devices="tripinfo_car_29" vType="car9@car_29" speedFactor="1.00" vaporized=""/>
    <tripinfo id="car_13" depart="2.00" departLane="001_001_1_1" departPos="6.10" departSpeed="11.18" departDelay="0.00" arrival="108.80" arrivalLane="001_003_4_2" arrivalPos="400.00" arrivalSpeed="11.18" duration="106.80" routeLength="1044.32" waitingTime="9.20" waitingCount="1" stopTime="0.00" timeLoss="-4267.23" rerouteNo="3" devices="tripinfo_car_13" vType="car6@car_13" speedFactor="1.12" vaporized=""/>
    <tripinfo id="car_39" depart="7.00" departLane="001_002_2_2" departPos="9.10" departSpeed="11.18" departDelay="1.00" arrival="109.00" arrivalLane="000_001_3_0" arrivalPos="400.00" arrivalSpeed="11.18" duration="102.00" routeLength="1027.13" waitingTime="7.40" waitingCount="3" stopTime="0.00" timeLoss="-4812.25" rerouteNo="2" devices="tripinfo_car_39" vType="car9@car_39" speedFactor="1.16" vaporized=""/>
    <tripinfo id="car_60" depart="9.00" departLane="002_002_2_1" departPos="8.10" departSpeed="11.18" departDelay="0.00" arrival="109.00" arrivalLane="003_001_1_1" arrivalPos="400.00" arrivalSpeed="11.18" duration="100.00" routeLength="1047.20" waitingTime="0.00" waitingCount="0" stopTime="0.00" timeLoss="-5.32" rerouteNo="2" devices="tripinfo_car_60" vType="car8@car_60" speedFactor="1.08" vaporized=""/>
    <tripinfo id="car_69" depart="11.00" departLane="002_001_3_1" departPos="9.10" departSpeed="11.18" departDelay="0.00" arrival="109.00" arrivalLane="003_002_1_0" arrivalPos="400.00" arrivalSpeed="11.18" duration="98.00" routeLength="1014.12" waitingTime="0.00" waitingCount="0" stopTime="0.00" timeLoss="0.28" rerouteNo="3" devices="tripinfo_car_69" vType="car9@car_69" speedFactor="1.02" vaporized=""/>
    <tripinfo id="car_85" depart="13.60" departLane="002_002_3_2" departPos="5.10" departSpeed="11.18" departDelay="0.60" arrival="109.20" arrivalLane="001_003_4_0" arrivalPos="400.00" arrivalSpeed="11.18" duration="95.60" routeLength="1031.13" waitingTime="2.40" waitingCount="1" stopTime="0.00" timeLoss="-3324.08" rerouteNo="2" devices="tripinfo_car_85" vType="car5@car_85" speedFactor="1.00" vaporized=""/>
    <tripinfo id="car_63" depart="10.00" departLane="001_002_2_1" departPos="5.10" departSpeed="11.18" departDelay="0.00" arrival="109.60" arrivalLane="001_000_2_0" arrivalPos="400.00" arrivalSpeed="11.18" duration="99.60" routeLength="1049.30" waitingTime="4.80" waitingCount="1" stopTime="0.00" timeLoss="-4215.90" rerouteNo="2" devices="tripinfo_car_63" vType="car5@car_63" speedFactor="1.00" vaporized=""/>
    <tripinfo id="car_57" depart="9.00" departLane="002_001_3_2" departPos="8.10" departSpeed="11.18" departDelay="0.00" arrival="110.40" arrivalLane="003_002_1_2" arrivalPos="400.00" arrivalSpeed="11.18" duration="101.40" routeLength="1030.61" waitingTime="0.00" waitingCount="0" stopTime="0.00" timeLoss="-5.50" rerouteNo="3" devices="tripinfo_car_57" vType="car8@car_57" speedFactor="1.14" vaporized=""/>
    <tripinfo id="car_87" depart="14.60" departLane="001_002_2_2" departPos="5.10" departSpeed="11.18" departDelay="0.60" arrival="110.40" arrivalLane="000_001_3_0" arrivalPos="400.00" arrivalSpeed="11.18" duration="95.80" routeLength="1031.13" waitingTime="2.40" waitingCount="1" stopTime="0.00" timeLoss="-1.52" rerouteNo="2" devices="tripinfo_car_87" vType="car5@car_87" speedFactor="1.04" vaporized=""/>
    <tripinfo id="car_125" depart="20.00" departLane="002_002_2_1" departPos="8.10" departSpeed="11.18" departDelay="0.00" arrival="110.40" arrivalLane="001_003_4_0" arrivalPos="400.00" arrivalSpeed="11.18" duration="90.40" routeLength="1009.96" waitingTime="0.00" waitingCount="0" stopTime="0.00" timeLoss="-5.06" rerouteNo="3" devices="tripinfo_car_125" vType="car8@car_125" speedFactor="1.15" vaporized=""/>
    <tripinfo id="car_22" depart="3.60" departLane="001_001_4_0" departPos="5.10" departSpeed="11.18" departDelay="0.60" arrival="110.60" arrivalLane="000_002_3_0" arrivalPos="400.00" arrivalSpeed="11.18" duration="107.00" routeLength="1054.59" waitingTime="11.00" waitingCount="1" stopTime="0.00" timeLoss="-4866.83" rerouteNo="2" devices="tripinfo_car_22" vType="car5@car_22" speedFactor="1.09" vaporized=""/>
    <tripinfo id="car_33" depart="5.00" departLane="001_002_2_2" departPos="8.10" departSpeed="11.18" departDelay="0.00" arrival="111.20" arrivalLane="002_003_4_2" arrivalPos="400.00" arrivalSpeed="11.18" duration="106.20" routeLength="1038.33" waitingTime="9.40" waitingCount="4" stopTime="0.00" timeLoss="-8439.32" rerouteNo="3" devices="tripinfo_car_33" vType="car8@car_33" speedFactor="1.17" vaporized=""/>
    <tripinfo id="car_105" depart="17.00" departLane="001_001_4_2" departPos="9.10" departSpeed="11.18" departDelay="0.00" arrival="111.20" arrivalLane="002_000_2_0" arrivalPos="400.00" arrivalSpeed="11.18" duration="94.20" routeLength="1014.12" waitingTime="0.00" waitingCount="0" stopTime="0.00" timeLoss="-1.69" rerouteNo="3" devices="tripinfo_car_105" vType="car9@car_105" speedFactor="1.07" vaporized=""/>
    <tripinfo id="car_51" depart="9.00" departLane="001_002_2_2" departPos="9.10" departSpeed="11.18" departDelay="1.00" arrival="112.20" arrivalLane="000_001_3_1" arrivalPos="400.00" arrivalSpeed="11.18" duration="103.20" routeLength="1032.29" waitingTime="3.80" waitingCount="1" stopTime="0.00" timeLoss="-2940.69" rerouteNo="2" devices="tripinfo_car_51" vType="car9@car_51" speedFactor="1.17" vaporized=""/>
    <tripinfo id="car_61" depart="10.60" departLane="002_002_3_0" departPos="5.10" departSpeed="11.18" departDelay="1.60" arrival="112.20" arrivalLane="002_000_2_2" arrivalPos="400.00" arrivalSpeed="11.18" duration="101.60" routeLength="1050.20" waitingTime="1.80" waitingCount="2" stopTime="0.00" timeLoss="-2925.07" rerouteNo="3" devices="tripinfo_car_61" vType="car5@car_61" speedFactor="1.12" vaporized=""/>
    <tripinfo id="car_40" depart="6.00" departLane="002_001_3_1" departPos="8.10" departSpeed="11.18" departDelay="0.00" arrival="113.60" arrivalLane="001_000_2_1" arrivalPos="400.00" arrivalSpeed="11.18" duration="107.60" routeLength="1047.20" waitingTime="0.00" waitingCount="0" stopTime="0.00" timeLoss="-14.09" rerouteNo="2" devices="tripinfo_car_40" vType="car8@car_40" speedFactor="1.03" vaporized=""/>
    <tripinfo id="car_9" depart="1.00" departLane="001_001_4_1" departPos="7.10" departSpeed="11.18" departDelay="0.00" arrival="114.20" arrivalLane="003_002_1_0" arrivalPos="400.00" arrivalSpeed="11.18" duration="113.20" routeLength="1239.34" waitingTime="0.00" waitingCount="0" stopTime="0.00" timeLoss="-5.55" rerouteNo="4" devices="tripinfo_car_9" vType="car7@car_9" speedFactor="1.03" vaporized=""/>
    <tripinfo id="car_217" depart="36.40" departLane="002_001_3_1" departPos="6.10" departSpeed="11.18" departDelay="0.40" arrival="114.80" arrivalLane="002_000_2_1" arrivalPos="400.00" arrivalSpeed="11.18" duration="78.40" routeLength="822.00" waitingTime="3.40" waitingCount="1" stopTime="0.00" timeLoss="-3408.24" rerouteNo="2" devices="tripinfo_car_217" vType="car6@car_217" speedFactor="1.07" vaporized=""/>
    <tripinfo id="car_83" depart="13.00" departLane="001_001_4_1" departPos="8.10" departSpeed="11.18" departDelay="0.00" arrival="116.60" arrivalLane="003_001_1_2" arrivalPos="400.00" arrivalSpeed="11.18" duration="103.60" routeLength="1033.29" waitingTime="6.20" waitingCount="5" stopTime="0.00" timeLoss="-4176.25" rerouteNo="3" devices="tripinfo_car_83" vType="car8@car_83" speedFactor="1.03" vaporized=""/>
    <tripinfo id="car_26" depart="6.00" departLane="001_002_2_0" departPos="9.10" departSpeed="11.18" departDelay="2.00" arrival="116.80" arrivalLane="003_002_1_2" arrivalPos="400.00" arrivalSpeed="11.18" duration="110.80" routeLength="1046.20" waitingTime="10.20" waitingCount="4" stopTime="0.00" timeLoss="-3684.19" rerouteNo="3" devices="tripinfo_car_26" vType="car9@car_26" speedFactor="1.00" vaporized=""/>
    <tripinfo id="car_122" depart="20.00" departLane="002_001_3_1" departPos="5.10" departSpeed="11.18" departDelay="0.00" arrival="116.80" arrivalLane="003_002_1_0" arrivalPos="400.00" arrivalSpeed="11.18" duration="96.80" routeLength="1012.96" waitingTime="0.00" waitingCount="0" stopTime="0.00" timeLoss="-0.04" rerouteNo="3" devices="tripinfo_car_122" vType="car5@car_122" speedFactor="1.03" vaporized=""/>
    <tripinfo id="car_1" depart="0.00" departLane="001_002_2_2" departPos="7.10" departSpeed="11.18" departDelay="0.00" arrival="117.20" arrivalLane="002_000_2_0" arrivalPos="400.00" arrivalSpeed="11.18" duration="117.20" routeLength="1252.34" waitingTime="4.20" waitingCount="1" stopTime="0.00" timeLoss="-4295.08" rerouteNo="4" devices="tripinfo_car_1" vType="car7@car_1" speedFactor="1.06" vaporized=""/>
    <tripinfo id="car_138" depart="23.00" departLane="002_002_3_0" departPos="9.10" departSpeed="11.18" departDelay="1.00" arrival="117.40" arrivalLane="001_003_4_0" arrivalPos="400.00" arrivalSpeed="11.18" duration="94.40" routeLength="1027.13" waitingTime="1.60" waitingCount="1" stopTime="0.00" timeLoss="-2.39" rerouteNo="2" devices="tripinfo_car_138" vType="car9@car_138" speedFactor="1.00" vaporized=""/>
    <tripinfo id="car_219" depart="37.00" departLane="001_002_1_1" departPos="9.10" departSpeed="11.18" departDelay="1.00" arrival="117.80" arrivalLane="001_003_4_2" arrivalPos="400.00" arrivalSpeed="11.18" duration="80.80" routeLength="814.12" waitingTime="0.20" waitingCount="1" stopTime="0.00" timeLoss="6.28" rerouteNo="2" devices="tripinfo_car_219" vType="car9@car_219" speedFactor="1.00" vaporized=""/>
    <tripinfo id="car_141" depart="23.00" departLane="002_001_3_2" departPos="5.10" departSpeed="11.18" departDelay="0.00" arrival="118.60" arrivalLane="003_002_1_0" arrivalPos="400.00" arrivalSpeed="11.18" duration="95.60" routeLength="1018.12" waitingTime="1.40" waitingCount="1" stopTime="0.00" timeLoss="-3044.30" rerouteNo="3" devices="tripinfo_car_141" vType="car5@car_141" speedFactor="1.16" vaporized=""/>
    <tripinfo id="car_58" depart="9.00" departLane="001_001_4_1" departPos="9.10" departSpeed="11.18" departDelay="0.00" arrival="118.80" arrivalLane="001_003_4_1" arrivalPos="400.00" arrivalSpeed="11.18" duration="109.80" routeLength="1045.30" waitingTime="15.20" waitingCount="1" stopTime="0.00" timeLoss="-4672.82" rerouteNo="2" devices="tripinfo_car_58" vType="car9@car_58" speedFactor="1.02" vaporized=""/>
    <tripinfo id="car_108" depart="18.80" departLane="001_001_1_1" departPos="7.10" departSpeed="11.18" departDelay="0.80" arrival="118.80" arrivalLane="002_000_2_1" arrivalPos="400.00" arrivalSpeed="11.18" duration="100.00" routeLength="1034.29" waitingTime="1.00" waitingCount="1" stopTime="0.00" timeLoss="-3.28" rerouteNo="2" devices="tripinfo_car_108" vType="car7@car_108" speedFactor="1.06" vaporized=""/>
    <tripinfo id="car_103" depart="17.00" departLane="001_001_1_2" departPos="6.10" departSpeed="11.18" departDelay="0.00" arrival="119.60" arrivalLane="003_001_1_2" arrivalPos="400.00" arrivalSpeed="11.18" duration="102.60" routeLength="1048.30" waitingTime="5.00" waitingCount="3" stopTime="0.00" timeLoss="-7337.10" rerouteNo="2" devices="tripinfo_car_103" vType="car6@car_103" speedFactor="1.00" vaporized=""/>
    <tripinfo id="car_2" depart="0.00" departLane="002_001_3_1" departPos="6.10" departSpeed="11.18" departDelay="0.00" arrival="120.40" arrivalLane="001_003_4_2" arrivalPos="400.00" arrivalSpeed="11.18" duration="120.40" routeLength="1245.49" waitingTime="0.00" waitingCount="0" stopTime="0.00" timeLoss="-6.99" rerouteNo="4" devices="tripinfo_car_2" vType="car6@car_2" speedFactor="1.01" vaporized=""/>
    <tripinfo id="car_10" depart="1.60" departLane="001_002_1_0" departPos="5.10" departSpeed="11.18" departDelay="0.60" arrival="121.20" arrivalLane="002_000_2_0" arrivalPos="400.00" arrivalSpeed="11.18" duration="119.60" routeLength="1236.17" waitingTime="3.60" waitingCount="1" stopTime="0.00" timeLoss="-1.30" rerouteNo="4" devices="tripinfo_car_10" vType="car5@car_10" speedFactor="1.09" vaporized=""/>
    <tripinfo id="car_159" depart="26.00" departLane="002_001_3_1" departPos="7.10" departSpeed="11.18" departDelay="0.00" arrival="121.60" arrivalLane="003_002_1_0" arrivalPos="400.00" arrivalSpeed="11.18" duration="95.60" routeLength="1016.12" waitingTime="0.00" waitingCount="0" stopTime="0.00" timeLoss="-0.30" rerouteNo="3" devices="tripinfo_car_159" vType="car7@car_159" speedFactor="1.14" vaporized=""/>
    <tripinfo id="car_95" depart="15.00" departLane="001_001_4_2" departPos="6.10" departSpeed="11.18" departDelay="0.00" arrival="121.80" arrivalLane="003_001_1_0" arrivalPos="400.00" arrivalSpeed="11.18" duration="106.80" routeLength="1030.13" waitingTime="9.00" waitingCount="3" stopTime="0.00" timeLoss="-7241.20" rerouteNo="3" devices="tripinfo_car_95" vType="car6@car_95" speedFactor="1.06" vaporized=""/>