<?xml version="1.0" encoding="UTF-8"?>

<!-- generated on 03/28/20 04:15:51 by Eclipse SUMO GUI Version 1.3.1
<configuration xmlns:xsi="http://www.w3.org/2001/XMLSchema-instance" xsi:noNamespaceSchemaLocation="http://sumo.dlr.de/xsd/sumoConfiguration.xsd">

    <input>
        <net-file value="data/lane2by2.net.xml"/>
        <route-files value="data/icacc+.rou.xml"/>
    </input>

    <output>
        <tripinfo-output value="tripinfo.xml"/>
    </output>

    <time>
        <begin value="0"/>
        <step-length value="0.1"/>
    </time>

    <processing>
        <collision.mingap-factor value="0"/>
    </processing>

    <report>
        <verbose value="true"/>
        <no-step-log value="true"/>
    </report>

    <traci_server>
        <remote-port value="14263"/>
    </traci_server>

    <gui_only>
        <start value="true"/>
        <tracker-interval value="0.1"/>
    </gui_only>

</configuration>
-->

<tripinfos xmlns:xsi="http://www.w3.org/2001/XMLSchema-instance" xsi:noNamespaceSchemaLocation="http://sumo.dlr.de/xsd/tripinfo_file.xsd">
    <tripinfo id="car_1" depart="0.00" departLane="001_001_1_1" departPos="7.10" departSpeed="11.18" departDelay="0.00" arrival="39.20" arrivalLane="001_000_2_2" arrivalPos="200.00" arrivalSpeed="10.00" duration="39.20" routeLength="412.25" waitingTime="0.00" waitingCount="0" stopTime="0.00" timeLoss="-0.30" rerouteNo="1" devices="tripinfo_car_1" vType="car7@car_1" speedFactor="0.94" vaporized=""/>
    <tripinfo id="car_8" depart="1.00" departLane="002_002_2_0" departPos="6.10" departSpeed="11.18" departDelay="0.00" arrival="40.70" arrivalLane="003_002_1_2" arrivalPos="200.00" arrivalSpeed="10.00" duration="39.70" routeLength="417.11" waitingTime="0.00" waitingCount="0" stopTime="0.00" timeLoss="-0.14" rerouteNo="1" devices="tripinfo_car_8" vType="car6@car_8" speedFactor="0.94" vaporized=""/>
    <tripinfo id="car_10" depart="2.00" departLane="002_001_3_2" departPos="9.10" departSpeed="11.18" departDelay="0.00" arrival="42.20" arrivalLane="002_000_2_2" arrivalPos="200.00" arrivalSpeed="10.00" duration="40.20" routeLength="414.12" waitingTime="0.00" waitingCount="0" stopTime="0.00" timeLoss="-0.04" rerouteNo="1" devices="tripinfo_car_10" vType="car9@car_10" speedFactor="1.09" vaporized=""/>
    <tripinfo id="car_13" depart="4.00" departLane="001_002_2_2" departPos="7.10" departSpeed="11.18" departDelay="0.00" arrival="43.20" arrivalLane="000_002_3_2" arrivalPos="200.00" arrivalSpeed="10.00" duration="39.20" routeLength="412.26" waitingTime="0.00" waitingCount="0" stopTime="0.00" timeLoss="-0.01" rerouteNo="1" devices="tripinfo_car_13" vType="car7@car_13" speedFactor="1.12" vaporized=""/>
    <tripinfo id="car_11" depart="2.00" departLane="002_001_4_2" departPos="6.10" departSpeed="11.18" departDelay="0.00" arrival="43.40" arrivalLane="003_001_1_1" arrivalPos="200.00" arrivalSpeed="10.00" duration="41.40" routeLength="408.09" waitingTime="0.00" waitingCount="0" stopTime="0.00" timeLoss="2.20" rerouteNo="1" devices="tripinfo_car_11" vType="car6@car_11" speedFactor="1.03" vaporized=""/>
    <tripinfo id="car_12" depart="4.00" departLane="001_001_4_2" departPos="6.10" departSpeed="11.18" departDelay="0.00" arrival="43.70" arrivalLane="000_001_3_2" arrivalPos="200.00" arrivalSpeed="10.00" duration="39.70" routeLength="417.11" waitingTime="0.00" waitingCount="0" stopTime="0.00" timeLoss="-0.01" rerouteNo="1" devices="tripinfo_car_12" vType="car6@car_12" speedFactor="1.05" vaporized=""/>
    <tripinfo id="car_14" depart="5.00" departLane="002_001_3_2" departPos="5.10" departSpeed="11.18" departDelay="0.00" arrival="45.70" arrivalLane="002_000_2_0" arrivalPos="200.00" arrivalSpeed="10.00" duration="40.70" routeLength="427.39" waitingTime="0.00" waitingCount="0" stopTime="0.00" timeLoss="-0.01" rerouteNo="1" devices="tripinfo_car_14" vType="car5@car_14" speedFactor="0.99" vaporized=""/>
    <tripinfo id="car_16" depart="6.00" departLane="002_001_3_2" departPos="7.10" departSpeed="11.18" departDelay="0.00" arrival="46.70" arrivalLane="002_000_2_1" arrivalPos="200.00" arrivalSpeed="10.00" duration="40.70" routeLength="421.00" waitingTime="0.00" waitingCount="0" stopTime="0.00" timeLoss="-0.11" rerouteNo="1" devices="tripinfo_car_16" vType="car7@car_16" speedFactor="0.88" vaporized=""/>
    <tripinfo id="car_26" depart="10.00" departLane="001_002_2_2" departPos="6.10" departSpeed="11.18" departDelay="0.00" arrival="48.30" arrivalLane="000_002_3_0" arrivalPos="200.00" arrivalSpeed="10.00" duration="38.30" routeLength="402.93" waitingTime="0.00" waitingCount="0" stopTime="0.00" timeLoss="-0.62" rerouteNo="1" devices="tripinfo_car_26" vType="car6@car_26" speedFactor="0.92" vaporized=""/>
    <tripinfo id="car_28" depart="10.00" departLane="002_002_3_2" departPos="5.10" departSpeed="11.18" departDelay="0.00" arrival="48.40" arrivalLane="002_003_4_0" arrivalPos="200.00" arrivalSpeed="10.00" duration="38.40" routeLength="403.93" waitingTime="0.00" waitingCount="0" stopTime="0.00" timeLoss="-0.31" rerouteNo="1" devices="tripinfo_car_28" vType="car5@car_28" speedFactor="1.13" vaporized=""/>
    <tripinfo id="car_27" depart="10.00" departLane="002_002_2_1" departPos="6.10" departSpeed="11.18" departDelay="0.00" arrival="50.20" arrivalLane="003_002_1_2" arrivalPos="200.00" arrivalSpeed="10.00" duration="40.20" routeLength="417.11" waitingTime="0.00" waitingCount="0" stopTime="0.00" timeLoss="-0.12" rerouteNo="1" devices="tripinfo_car_27" vType="car6@car_27" speedFactor="0.95" vaporized=""/>
    <tripinfo id="car_37" depart="13.00" departLane="002_002_3_2" departPos="9.10" departSpeed="11.18" departDelay="0.00" arrival="51.00" arrivalLane="002_003_4_0" arrivalPos="200.00" arrivalSpeed="10.00" duration="38.00" routeLength="399.93" waitingTime="0.00" waitingCount="0" stopTime="0.00" timeLoss="-0.28" rerouteNo="1" devices="tripinfo_car_37" vType="car9@car_37" speedFactor="1.18" vaporized=""/>
    <tripinfo id="car_32" depart="11.80" departLane="002_002_2_2" departPos="9.10" departSpeed="11.18" departDelay="0.80" arrival="51.30" arrivalLane="003_002_1_2" arrivalPos="200.00" arrivalSpeed="10.00" duration="39.50" routeLength="414.11" waitingTime="0.00" waitingCount="0" stopTime="0.00" timeLoss="-0.01" rerouteNo="1" devices="tripinfo_car_32" vType="car9@car_32" speedFactor="1.01" vaporized=""/>
    <tripinfo id="car_34" depart="12.60" departLane="002_001_4_2" departPos="6.10" departSpeed="11.18" departDelay="0.60" arrival="51.40" arrivalLane="003_001_1_1" arrivalPos="200.00" arrivalSpeed="10.00" duration="38.80" routeLength="408.09" waitingTime="0.00" waitingCount="0" stopTime="0.00" timeLoss="-0.37" rerouteNo="1" devices="tripinfo_car_34" vType="car6@car_34" speedFactor="0.99" vaporized=""/>
    <tripinfo id="car_40" depart="14.00" departLane="002_002_2_0" departPos="7.10" departSpeed="11.18" departDelay="0.00" arrival="53.60" arrivalLane="003_002_1_2" arrivalPos="200.00" arrivalSpeed="10.00" duration="39.60" routeLength="416.11" waitingTime="0.00" waitingCount="0" stopTime="0.00" timeLoss="-0.01" rerouteNo="1" devices="tripinfo_car_40" vType="car7@car_40" speedFactor="1.03" vaporized=""/>
    <tripinfo id="car_38" depart="14.40" departLane="002_001_4_1" departPos="8.10" departSpeed="11.18" departDelay="0.40" arrival="54.50" arrivalLane="003_001_1_2" arrivalPos="200.00" arrivalSpeed="10.00" duration="40.10" routeLength="411.26" waitingTime="0.00" waitingCount="0" stopTime="0.00" timeLoss="0.98" rerouteNo="1" devices="tripinfo_car_38" vType="car8@car_38" speedFactor="1.10" vaporized=""/>
    <tripinfo id="car_46" depart="17.00" departLane="002_002_2_0" departPos="7.10" departSpeed="11.18" departDelay="0.00" arrival="56.60" arrivalLane="003_002_1_2" arrivalPos="200.00" arrivalSpeed="10.00" duration="39.60" routeLength="416.11" waitingTime="0.00" waitingCount="0" stopTime="0.00" timeLoss="-0.01" rerouteNo="1" devices="tripinfo_car_46" vType="car7@car_46" speedFactor="1.00" vaporized=""/>
    <tripinfo id="car_44" depart="16.00" departLane="001_002_1_0" departPos="9.10" departSpeed="11.18" departDelay="0.00" arrival="56.80" arrivalLane="001_003_4_1" arrivalPos="200.00" arrivalSpeed="10.00" duration="40.80" routeLength="419.00" waitingTime="0.00" waitingCount="0" stopTime="0.00" timeLoss="-0.04" rerouteNo="1" devices="tripinfo_car_44" vType="car9@car_44" speedFactor="1.04" vaporized=""/>
    <tripinfo id="car_52" depart="19.00" departLane="002_002_3_1" departPos="9.10" departSpeed="11.18" departDelay="0.00" arrival="57.00" arrivalLane="002_003_4_0" arrivalPos="200.00" arrivalSpeed="10.00" duration="38.00" routeLength="399.93" waitingTime="0.00" waitingCount="0" stopTime="0.00" timeLoss="-0.47" rerouteNo="1" devices="tripinfo_car_52" vType="car9@car_52" speedFactor="1.02" vaporized=""/>
    <tripinfo id="car_49" depart="19.00" departLane="002_001_4_2" departPos="8.10" departSpeed="11.18" departDelay="0.00" arrival="57.60" arrivalLane="003_001_1_1" arrivalPos="200.00" arrivalSpeed="10.00" duration="38.60" routeLength="406.09" waitingTime="0.00" waitingCount="0" stopTime="0.00" timeLoss="-0.67" rerouteNo="1" devices="tripinfo_car_49" vType="car8@car_49" speedFactor="0.85" vaporized=""/>
    <tripinfo id="car_45" depart="17.00" departLane="002_001_3_1" departPos="9.10" departSpeed="11.18" departDelay="0.00" arrival="58.00" arrivalLane="002_000_2_2" arrivalPos="200.00" arrivalSpeed="10.00" duration="41.00" routeLength="414.12" waitingTime="0.00" waitingCount="0" stopTime="0.00" timeLoss="-0.11" rerouteNo="1" devices="tripinfo_car_45" vType="car9@car_45" speedFactor="1.09" vaporized=""/>
    <tripinfo id="car_57" depart="20.80" departLane="002_002_3_0" departPos="9.10" departSpeed="11.18" departDelay="0.80" arrival="59.30" arrivalLane="002_003_4_1" arrivalPos="200.00" arrivalSpeed="10.00" duration="38.50" routeLength="405.09" waitingTime="0.00" waitingCount="0" stopTime="0.00" timeLoss="-0.15" rerouteNo="1" devices="tripinfo_car_57" vType="car9@car_57" speedFactor="1.14" vaporized=""/>
    <tripinfo id="car_50" depart="19.00" departLane="001_002_1_0" departPos="8.10" departSpeed="11.18" departDelay="0.00" arrival="59.40" arrivalLane="001_003_4_1" arrivalPos="200.00" arrivalSpeed="10.00" duration="40.40" routeLength="420.00" waitingTime="0.00" waitingCount="0" stopTime="0.00" timeLoss="-0.17" rerouteNo="1" devices="tripinfo_car_50" vType="car8@car_50" speedFactor="0.85" vaporized=""/>
    <tripinfo id="car_3" depart="0.00" departLane="002_002_3_2" departPos="7.10" departSpeed="11.18" departDelay="0.00" arrival="60.20" arrivalLane="002_000_2_2" arrivalPos="200.00" arrivalSpeed="10.00" duration="60.20" routeLength="643.32" waitingTime="0.00" waitingCount="0" stopTime="0.00" timeLoss="-0.81" rerouteNo="2" devices="tripinfo_car_3" vType="car7@car_3" speedFactor="1.08" vaporized=""/>
    <tripinfo id="car_55" depart="20.60" departLane="001_002_1_1" departPos="6.10" departSpeed="11.18" departDelay="0.60" arrival="60.80" arrivalLane="001_003_4_2" arrivalPos="200.00" arrivalSpeed="10.00" duration="40.20" routeLength="417.12" waitingTime="0.00" waitingCount="0" stopTime="0.00" timeLoss="-0.01" rerouteNo="1" devices="tripinfo_car_55" vType="car6@car_55" speedFactor="1.00" vaporized=""/>
    <tripinfo id="car_9" depart="3.30" departLane="001_001_4_2" departPos="5.10" departSpeed="11.18" departDelay="1.30" arrival="61.00" arrivalLane="002_000_2_1" arrivalPos="200.00" arrivalSpeed="10.00" duration="57.70" routeLength="618.12" waitingTime="0.00" waitingCount="0" stopTime="0.00" timeLoss="-2.17" rerouteNo="2" devices="tripinfo_car_9" vType="car5@car_9" speedFactor="0.86" vaporized=""/>
    <tripinfo id="car_2" depart="0.00" departLane="002_001_4_2" departPos="5.10" departSpeed="11.18" departDelay="0.00" arrival="61.20" arrivalLane="001_000_2_2" arrivalPos="200.00" arrivalSpeed="10.00" duration="61.20" routeLength="641.33" waitingTime="0.00" waitingCount="0" stopTime="0.00" timeLoss="-0.86" rerouteNo="2" devices="tripinfo_car_2" vType="car5@car_2" speedFactor="1.01" vaporized=""/>
    <tripinfo id="car_5" depart="1.00" departLane="001_001_1_1" departPos="5.10" departSpeed="11.18" departDelay="0.00" arrival="62.00" arrivalLane="002_000_2_0" arrivalPos="200.00" arrivalSpeed="10.00" duration="61.00" routeLength="631.13" waitingTime="0.00" waitingCount="0" stopTime="0.00" timeLoss="-0.18" rerouteNo="2" devices="tripinfo_car_5" vType="car5@car_5" speedFactor="0.83" vaporized=""/>
    <tripinfo id="car_0" depart="0.00" departLane="001_001_4_2" departPos="9.10" departSpeed="11.18" departDelay="0.00" arrival="62.10" arrivalLane="001_003_4_2" arrivalPos="200.00" arrivalSpeed="10.00" duration="62.10" routeLength="645.30" waitingTime="0.00" waitingCount="0" stopTime="0.00" timeLoss="-1.20" rerouteNo="2" devices="tripinfo_car_0" vType="car9@car_0" speedFactor="1.06" vaporized=""/>
    <tripinfo id="car_59" depart="21.00" departLane="001_002_1_1" departPos="6.10" departSpeed="11.18" departDelay="0.00" arrival="63.30" arrivalLane="001_003_4_1" arrivalPos="200.00" arrivalSpeed="10.00" duration="42.30" routeLength="422.00" waitingTime="0.00" waitingCount="0" stopTime="0.00" timeLoss="-0.10" rerouteNo="1" devices="tripinfo_car_59" vType="car6@car_59" speedFactor="0.97" vaporized=""/>
    <tripinfo id="car_65" depart="25.00" departLane="001_002_2_2" departPos="7.10" departSpeed="11.18" departDelay="0.00" arrival="64.50" arrivalLane="000_002_3_2" arrivalPos="200.00" arrivalSpeed="10.00" duration="39.50" routeLength="412.26" waitingTime="0.00" waitingCount="0" stopTime="0.00" timeLoss="-0.38" rerouteNo="1" devices="tripinfo_car_65" vType="car7@car_65" speedFactor="0.88" vaporized=""/>
    <tripinfo id="car_4" depart="1.80" departLane="001_001_4_2" departPos="9.10" departSpeed="11.18" departDelay="0.80" arrival="64.60" arrivalLane="001_003_4_2" arrivalPos="200.00" arrivalSpeed="10.00" duration="62.80" routeLength="645.30" waitingTime="0.40" waitingCount="1" stopTime="0.00" timeLoss="-4379.64" rerouteNo="2" devices="tripinfo_car_4" vType="car9@car_4" speedFactor="1.03" vaporized=""/>
    <tripinfo id="car_69" depart="26.60" departLane="002_001_3_2" departPos="6.10" departSpeed="11.18" departDelay="0.60" arrival="66.50" arrivalLane="002_000_2_2" arrivalPos="200.00" arrivalSpeed="10.00" duration="39.90" routeLength="417.12" waitingTime="0.00" waitingCount="0" stopTime="0.00" timeLoss="0.00" rerouteNo="1" devices="tripinfo_car_69" vType="car6@car_69" speedFactor="1.02" vaporized=""/>
    <tripinfo id="car_73" depart="28.00" departLane="002_002_3_0" departPos="6.10" departSpeed="11.18" departDelay="0.00" arrival="66.80" arrivalLane="002_003_4_1" arrivalPos="200.00" arrivalSpeed="10.00" duration="38.80" routeLength="408.09" waitingTime="0.00" waitingCount="0" stopTime="0.00" timeLoss="-0.27" rerouteNo="1" devices="tripinfo_car_73" vType="car6@car_73" speedFactor="1.06" vaporized=""/>
    <tripinfo id="car_19" depart="7.80" departLane="002_002_2_1" departPos="9.10" departSpeed="11.18" departDelay="0.80" arrival="67.00" arrivalLane="000_002_3_1" arrivalPos="200.00" arrivalSpeed="10.00" duration="59.20" routeLength="632.29" waitingTime="0.00" waitingCount="0" stopTime="0.00" timeLoss="-0.93" rerouteNo="2" devices="tripinfo_car_19" vType="car9@car_19" speedFactor="1.16" vaporized=""/>
    <tripinfo id="car_18" depart="6.80" departLane="002_002_3_2" departPos="8.10" departSpeed="11.18" departDelay="0.80" arrival="67.60" arrivalLane="001_003_4_2" arrivalPos="200.00" arrivalSpeed="10.00" duration="60.80" routeLength="638.45" waitingTime="0.00" waitingCount="0" stopTime="0.00" timeLoss="-1.17" rerouteNo="2" devices="tripinfo_car_18" vType="car8@car_18" speedFactor="0.94" vaporized=""/>
    <tripinfo id="car_74" depart="29.00" departLane="001_001_4_2" departPos="6.10" departSpeed="11.18" departDelay="0.00" arrival="68.70" arrivalLane="000_001_3_2" arrivalPos="200.00" arrivalSpeed="10.00" duration="39.70" routeLength="417.11" waitingTime="0.00" waitingCount="0" stopTime="0.00" timeLoss="-0.09" rerouteNo="1" devices="tripinfo_car_74" vType="car6@car_74" speedFactor="0.96" vaporized=""/>
    <tripinfo id="car_20" depart="7.00" departLane="002_002_3_1" departPos="7.10" departSpeed="11.18" departDelay="0.00" arrival="69.10" arrivalLane="002_000_2_2" arrivalPos="200.00" arrivalSpeed="10.00" duration="62.10" routeLength="648.20" waitingTime="0.00" waitingCount="0" stopTime="0.00" timeLoss="-1.28" rerouteNo="2" devices="tripinfo_car_20" vType="car7@car_20" speedFactor="1.02" vaporized=""/>
    <tripinfo id="car_23" depart="9.00" departLane="001_002_1_0" departPos="5.10" departSpeed="11.18" departDelay="0.00" arrival="69.40" arrivalLane="002_003_4_2" arrivalPos="200.00" arrivalSpeed="10.00" duration="60.40" routeLength="645.32" waitingTime="0.00" waitingCount="0" stopTime="0.00" timeLoss="-1.07" rerouteNo="2" devices="tripinfo_car_23" vType="car5@car_23" speedFactor="0.89" vaporized=""/>
    <tripinfo id="car_21" depart="8.00" departLane="002_002_2_0" departPos="6.10" departSpeed="11.18" departDelay="0.00" arrival="69.70" arrivalLane="000_002_3_1" arrivalPos="200.00" arrivalSpeed="10.00" duration="61.70" routeLength="630.13" waitingTime="0.00" waitingCount="0" stopTime="0.00" timeLoss="-1.40" rerouteNo="2" devices="tripinfo_car_21" vType="car6@car_21" speedFactor="1.01" vaporized=""/>
    <tripinfo id="car_24" depart="9.00" departLane="002_002_3_1" departPos="5.10" departSpeed="11.18" departDelay="0.00" arrival="69.80" arrivalLane="000_002_3_2" arrivalPos="200.00" arrivalSpeed="10.00" duration="60.80" routeLength="649.30" waitingTime="0.00" waitingCount="0" stopTime="0.00" timeLoss="-0.82" rerouteNo="2" devices="tripinfo_car_24" vType="car5@car_24" speedFactor="0.83" vaporized=""/>
    <tripinfo id="car_22" depart="9.00" departLane="002_001_4_2" departPos="9.10" departSpeed="11.18" departDelay="0.00" arrival="70.00" arrivalLane="000_001_3_2" arrivalPos="200.00" arrivalSpeed="10.00" duration="61.00" routeLength="641.31" waitingTime="0.00" waitingCount="0" stopTime="0.00" timeLoss="-0.89" rerouteNo="2" devices="tripinfo_car_22" vType="car9@car_22" speedFactor="0.98" vaporized=""/>
    <tripinfo id="car_25" depart="10.00" departLane="001_001_1_1" departPos="5.10" departSpeed="11.18" departDelay="0.00" arrival="70.40" arrivalLane="001_003_4_0" arrivalPos="200.00" arrivalSpeed="10.00" duration="60.40" routeLength="645.32" waitingTime="0.00" waitingCount="0" stopTime="0.00" timeLoss="-1.12" rerouteNo="2" devices="tripinfo_car_25" vType="car5@car_25" speedFactor="0.87" vaporized=""/>
    <tripinfo id="car_76" depart="30.00" departLane="001_002_2_1" departPos="7.10" departSpeed="11.18" departDelay="0.00" arrival="70.80" arrivalLane="000_002_3_1" arrivalPos="200.00" arrivalSpeed="10.00" duration="40.80" routeLength="407.09" waitingTime="0.00" waitingCount="0" stopTime="0.00" timeLoss="-0.75" rerouteNo="1" devices="tripinfo_car_76" vType="car7@car_76" speedFactor="1.03" vaporized=""/>
    <tripinfo id="car_81" depart="32.00" departLane="002_001_4_0" departPos="6.10" departSpeed="11.18" departDelay="0.00" arrival="70.80" arrivalLane="003_001_1_1" arrivalPos="200.00" arrivalSpeed="10.00" duration="38.80" routeLength="408.09" waitingTime="0.00" waitingCount="0" stopTime="0.00" timeLoss="-0.36" rerouteNo="1" devices="tripinfo_car_81" vType="car6@car_81" speedFactor="1.00" vaporized=""/>
    <tripinfo id="car_80" depart="31.00" departLane="001_001_4_2" departPos="8.10" departSpeed="11.18" departDelay="0.00" arrival="71.20" arrivalLane="000_001_3_2" arrivalPos="200.00" arrivalSpeed="10.00" duration="40.20" routeLength="415.11" waitingTime="0.00" waitingCount="0" stopTime="0.00" timeLoss="-0.03" rerouteNo="1" devices="tripinfo_car_80" vType="car8@car_80" speedFactor="1.03" vaporized=""/>
    <tripinfo id="car_36" depart="13.00" departLane="001_002_1_2" departPos="9.10" departSpeed="11.18" departDelay="0.00" arrival="71.40" arrivalLane="000_001_3_1" arrivalPos="200.00" arrivalSpeed="10.00" duration="58.40" routeLength="624.44" waitingTime="0.00" waitingCount="0" stopTime="0.00" timeLoss="-1.43" rerouteNo="2" devices="tripinfo_car_36" vType="car9@car_36" speedFactor="0.97" vaporized=""/>
    <tripinfo id="car_78" depart="30.00" departLane="002_002_2_0" departPos="8.10" departSpeed="11.18" departDelay="0.00" arrival="71.50" arrivalLane="003_002_1_2" arrivalPos="200.00" arrivalSpeed="10.00" duration="41.50" routeLength="415.11" waitingTime="0.00" waitingCount="0" stopTime="0.00" timeLoss="-0.49" rerouteNo="1" devices="tripinfo_car_78" vType="car8@car_78" speedFactor="1.01" vaporized=""/>
    <tripinfo id="car_29" depart="11.80" departLane="001_001_1_2" departPos="8.10" departSpeed="11.18" departDelay="0.80" arrival="71.90" arrivalLane="002_000_2_1" arrivalPos="200.00" arrivalSpeed="10.00" duration="60.10" routeLength="633.29" waitingTime="0.00" waitingCount="0" stopTime="0.00" timeLoss="-1.32" rerouteNo="2" devices="tripinfo_car_29" vType="car8@car_29" speedFactor="0.93" vaporized=""/>
    <tripinfo id="car_83" depart="33.00" departLane="001_002_2_0" departPos="8.10" departSpeed="11.18" departDelay="0.00" arrival="71.90" arrivalLane="000_002_3_1" arrivalPos="200.00" arrivalSpeed="10.00" duration="38.90" routeLength="406.09" waitingTime="0.00" waitingCount="0" stopTime="0.00" timeLoss="-0.43" rerouteNo="1" devices="tripinfo_car_83" vType="car8@car_83" speedFactor="0.97" vaporized=""/>
    <tripinfo id="car_35" depart="13.00" departLane="002_001_4_2" departPos="5.10" departSpeed="11.18" departDelay="0.00" arrival="72.00" arrivalLane="003_002_1_0" arrivalPos="200.00" arrivalSpeed="10.00" duration="59.00" routeLength="631.13" waitingTime="0.00" waitingCount="0" stopTime="0.00" timeLoss="-1.27" rerouteNo="2" devices="tripinfo_car_35" vType="car5@car_35" speedFactor="1.02" vaporized=""/>
    <tripinfo id="car_33" depart="12.00" departLane="001_001_4_1" departPos="8.10" departSpeed="11.18" departDelay="0.00" arrival="72.60" arrivalLane="001_003_4_2" arrivalPos="200.00" arrivalSpeed="10.00" duration="60.60" routeLength="646.30" waitingTime="0.00" waitingCount="0" stopTime="0.00" timeLoss="-0.82" rerouteNo="2" devices="tripinfo_car_33" vType="car8@car_33" speedFactor="1.17" vaporized=""/>
    <tripinfo id="car_90" depart="35.00" departLane="002_002_3_1" departPos="8.10" departSpeed="11.18" departDelay="0.00" arrival="73.60" arrivalLane="002_003_4_1" arrivalPos="200.00" arrivalSpeed="10.00" duration="38.60" routeLength="406.09" waitingTime="0.00" waitingCount="0" stopTime="0.00" timeLoss="-0.33" rerouteNo="1" devices="tripinfo_car_90" vType="car8@car_90" speedFactor="1.02" vaporized=""/>
    <tripinfo id="car_42" depart="17.90" departLane="001_002_1_2" departPos="8.10" departSpeed="11.18" departDelay="2.90" arrival="76.60" arrivalLane="000_001_3_1" arrivalPos="200.00" arrivalSpeed="10.00" duration="58.70" routeLength="625.44" waitingTime="0.00" waitingCount="0" stopTime="0.00" timeLoss="-1.02" rerouteNo="2" devices="tripinfo_car_42" vType="car8@car_42" speedFactor="1.09" vaporized=""/>
    <tripinfo id="car_96" depart="38.00" departLane="002_002_3_1" departPos="7.10" departSpeed="11.18" departDelay="0.00" arrival="76.70" arrivalLane="002_003_4_1" arrivalPos="200.00" arrivalSpeed="10.00" duration="38.70" routeLength="407.09" waitingTime="0.00" waitingCount="0" stopTime="0.00" timeLoss="-0.34" rerouteNo="1" devices="tripinfo_car_96" vType="car7@car_96" speedFactor="1.01" vaporized=""/>
    <tripinfo id="car_43" depart="16.00" departLane="002_001_4_0" departPos="8.10" departSpeed="11.18" departDelay="0.00" arrival="77.30" arrivalLane="002_003_4_2" arrivalPos="200.00" arrivalSpeed="10.00" duration="61.30" routeLength="646.30" waitingTime="0.00" waitingCount="0" stopTime="0.00" timeLoss="-0.82" rerouteNo="2" devices="tripinfo_car_43" vType="car8@car_43" speedFactor="1.04" vaporized=""/>
    <tripinfo id="car_47" depart="17.00" departLane="002_002_3_2" departPos="5.10" departSpeed="11.18" departDelay="0.00" arrival="78.90" arrivalLane="002_000_2_1" arrivalPos="200.00" arrivalSpeed="10.00" duration="61.90" routeLength="654.59" waitingTime="0.00" waitingCount="0" stopTime="0.00" timeLoss="-0.81" rerouteNo="2" devices="tripinfo_car_47" vType="car5@car_47" speedFactor="0.90" vaporized=""/>
    <tripinfo id="car_48" depart="18.50" departLane="002_002_3_0" departPos="5.10" departSpeed="11.18" departDelay="0.50" arrival="79.00" arrivalLane="003_001_1_2" arrivalPos="200.00" arrivalSpeed="10.00" duration="60.50" routeLength="641.33" waitingTime="0.00" waitingCount="0" stopTime="0.00" timeLoss="-1.43" rerouteNo="2" devices="tripinfo_car_48" vType="car5@car_48" speedFactor="0.88" vaporized=""/>
    <tripinfo id="car_97" depart="39.00" departLane="002_002_3_0" departPos="5.10" departSpeed="11.18" departDelay="0.00" arrival="79.40" arrivalLane="002_003_4_1" arrivalPos="200.00" arrivalSpeed="10.00" duration="40.40" routeLength="409.09" waitingTime="0.00" waitingCount="0" stopTime="0.00" timeLoss="0.92" rerouteNo="1" devices="tripinfo_car_97" vType="car5@car_97" speedFactor="0.91" vaporized=""/>
    <tripinfo id="car_53" depart="20.00" departLane="001_001_4_0" departPos="5.10" departSpeed="11.18" departDelay="0.00" arrival="80.40" arrivalLane="000_002_3_2" arrivalPos="200.00" arrivalSpeed="10.00" duration="60.40" routeLength="645.31" waitingTime="0.00" waitingCount="0" stopTime="0.00" timeLoss="-0.81" rerouteNo="2" devices="tripinfo_car_53" vType="car5@car_53" speedFactor="1.10" vaporized=""/>
    <tripinfo id="car_56" depart="20.00" departLane="002_002_2_0" departPos="8.10" departSpeed="11.18" departDelay="0.00" arrival="80.60" arrivalLane="003_001_1_1" arrivalPos="200.00" arrivalSpeed="10.00" duration="60.60" routeLength="647.20" waitingTime="0.00" waitingCount="0" stopTime="0.00" timeLoss="-0.84" rerouteNo="2" devices="tripinfo_car_56" vType="car8@car_56" speedFactor="0.90" vaporized=""/>
    <tripinfo id="car_61" depart="22.50" departLane="002_001_3_0" departPos="5.10" departSpeed="11.18" departDelay="0.50" arrival="82.00" arrivalLane="002_003_4_2" arrivalPos="200.00" arrivalSpeed="10.00" duration="59.50" routeLength="636.29" waitingTime="0.00" waitingCount="0" stopTime="0.00" timeLoss="-0.97" rerouteNo="2" devices="tripinfo_car_61" vType="car5@car_61" speedFactor="1.12" vaporized=""/>
    <tripinfo id="car_64" depart="24.00" departLane="002_002_2_0" departPos="8.10" departSpeed="11.18" departDelay="0.00" arrival="83.30" arrivalLane="000_002_3_0" arrivalPos="200.00" arrivalSpeed="10.00" duration="59.30" routeLength="633.29" waitingTime="0.00" waitingCount="0" stopTime="0.00" timeLoss="-1.29" rerouteNo="2" devices="tripinfo_car_64" vType="car8@car_64" speedFactor="0.94" vaporized=""/>
    <tripinfo id="car_7" depart="1.00" departLane="001_002_1_1" departPos="7.10" departSpeed="11.18" departDelay="0.00" arrival="83.40" arrivalLane="003_001_1_1" arrivalPos="200.00" arrivalSpeed="10.00" duration="82.40" routeLength="862.39" waitingTime="0.60" waitingCount="1" stopTime="0.00" timeLoss="-4966.15" rerouteNo="3" devices="tripinfo_car_7" vType="car7@car_7" speedFactor="0.89" vaporized=""/>
    <tripinfo id="car_62" depart="24.00" departLane="002_001_4_0" departPos="5.10" departSpeed="11.18" departDelay="0.00" arrival="83.50" arrivalLane="003_002_1_1" arrivalPos="200.00" arrivalSpeed="10.00" duration="59.50" routeLength="636.29" waitingTime="0.00" waitingCount="0" stopTime="0.00" timeLoss="-1.13" rerouteNo="2" devices="tripinfo_car_62" vType="car5@car_62" speedFactor="1.02" vaporized=""/>
    <tripinfo id="car_63" depart="24.00" departLane="001_002_1_0" departPos="7.10" departSpeed="11.18" departDelay="0.00" arrival="84.60" arrivalLane="000_001_3_1" arrivalPos="200.00" arrivalSpeed="10.00" duration="60.60" routeLength="626.44" waitingTime="0.00" waitingCount="0" stopTime="0.00" timeLoss="-1.46" rerouteNo="2" devices="tripinfo_car_63" vType="car7@car_63" speedFactor="0.99" vaporized=""/>
    <tripinfo id="car_60" depart="22.00" departLane="001_002_2_0" departPos="7.10" departSpeed="11.18" departDelay="0.00" arrival="84.80" arrivalLane="001_000_2_2" arrivalPos="200.00" arrivalSpeed="10.00" duration="62.80" routeLength="647.30" waitingTime="1.30" waitingCount="1" stopTime="0.00" timeLoss="-4296.40" rerouteNo="2" devices="tripinfo_car_60" vType="car7@car_60" speedFactor="1.08" vaporized=""/>
    <tripinfo id="car_70" depart="27.00" departLane="001_001_1_0" departPos="7.10" departSpeed="11.18" departDelay="0.00" arrival="85.80" arrivalLane="002_000_2_0" arrivalPos="200.00" arrivalSpeed="10.00" duration="58.80" routeLength="629.13" waitingTime="0.00" waitingCount="0" stopTime="0.00" timeLoss="-1.26" rerouteNo="2" devices="tripinfo_car_70" vType="car7@car_70" speedFactor="1.02" vaporized=""/>
    <tripinfo id="car_67" depart="26.00" departLane="001_001_4_2" departPos="7.10" departSpeed="11.18" departDelay="0.00" arrival="86.60" arrivalLane="001_003_4_2" arrivalPos="200.00" arrivalSpeed="10.00" duration="60.60" routeLength="647.30" waitingTime="0.00" waitingCount="0" stopTime="0.00" timeLoss="-0.81" rerouteNo="2" devices="tripinfo_car_67" vType="car7@car_67" speedFactor="0.91" vaporized=""/>
    <tripinfo id="car_68" depart="26.00" departLane="001_001_1_0" departPos="9.10" departSpeed="11.18" departDelay="0.00" arrival="87.60" arrivalLane="003_001_1_1" arrivalPos="200.00" arrivalSpeed="10.00" duration="61.60" routeLength="645.30" waitingTime="0.00" waitingCount="0" stopTime="0.00" timeLoss="-0.86" rerouteNo="2" devices="tripinfo_car_68" vType="car9@car_68" speedFactor="1.04" vaporized=""/>
    <tripinfo id="car_71" depart="27.00" departLane="002_001_4_2" departPos="5.10" departSpeed="11.18" departDelay="0.00" arrival="89.40" arrivalLane="000_001_3_2" arrivalPos="200.00" arrivalSpeed="10.00" duration="62.40" routeLength="645.31" waitingTime="0.00" waitingCount="0" stopTime="0.00" timeLoss="-0.98" rerouteNo="2" devices="tripinfo_car_71" vType="car5@car_71" speedFactor="0.97" vaporized=""/>