<?xml version="1.0" encoding="UTF-8"?>

<!-- generated on 04/24/21 19:04:53 by Eclipse SUMO GUI Version 1.8.0
<configuration xmlns:xsi="http://www.w3.org/2001/XMLSchema-instance" xsi:noNamespaceSchemaLocation="http://sumo.dlr.de/xsd/sumoConfiguration.xsd">

    <input>
        <net-file value="data/lane3.net.xml"/>
        <route-files value="data/icacc+.rou.xml"/>
        <additional-files value="data/icacc+.det.xml"/>
    </input>

    <output>
        <tripinfo-output value="tripinfo.xml"/>
    </output>

    <time>
        <begin value="0"/>
        <step-length value="0.1"/>
    </time>

    <processing>
        <collision.mingap-factor value="0"/>
        <time-to-teleport value="-1"/>
        <lanechange.duration value="0.5"/>
    </processing>

    <report>
        <verbose value="true"/>
        <no-step-log value="true"/>
    </report>

    <traci_server>
        <remote-port value="4510"/>
    </traci_server>

    <gui_only>
        <start value="true"/>
        <tracker-interval value="0.1"/>
    </gui_only>

</configuration>
-->

<tripinfos xmlns:xsi="http://www.w3.org/2001/XMLSchema-instance" xsi:noNamespaceSchemaLocation="http://sumo.dlr.de/xsd/tripinfo_file.xsd">
    <tripinfo id="S_0" depart="0.00" departLane="3_0" departPos="7.10" departSpeed="11.18" departDelay="0.00" arrival="37.20" arrivalLane="-1_2" arrivalPos="200.00" arrivalSpeed="11.18" duration="37.20" routeLength="415.30" waitingTime="0.00" waitingCount="0" stopTime="0.00" timeLoss="0.00" rerouteNo="0" devices="tripinfo_S_0" vType="car7@S_0" speedFactor="1.06" vaporized=""/>
    <tripinfo id="L_1" depart="1.20" departLane="3_2" departPos="6.10" departSpeed="11.18" departDelay="0.20" arrival="42.10" arrivalLane="-4_0" arrivalPos="200.00" arrivalSpeed="11.18" duration="40.90" routeLength="423.16" waitingTime="1.80" waitingCount="1" stopTime="0.00" timeLoss="-4182.22" rerouteNo="0" devices="tripinfo_L_1" vType="car6@L_1" speedFactor="0.94" vaporized=""/>
    <tripinfo id="S_2" depart="2.00" departLane="2_1" departPos="8.10" departSpeed="11.18" departDelay="0.00" arrival="43.60" arrivalLane="-4_1" arrivalPos="200.00" arrivalSpeed="11.18" duration="41.60" routeLength="414.30" waitingTime="3.60" waitingCount="1" stopTime="0.00" timeLoss="-4405.61" rerouteNo="0" devices="tripinfo_S_2" vType="car8@S_2" speedFactor="1.01" vaporized=""/>
    <tripinfo id="L_5" depart="6.00" departLane="2_2" departPos="9.10" departSpeed="11.18" departDelay="0.00" arrival="44.40" arrivalLane="-3_2" arrivalPos="200.00" arrivalSpeed="11.18" duration="38.40" routeLength="410.45" waitingTime="0.00" waitingCount="0" stopTime="0.00" timeLoss="-2.79" rerouteNo="0" devices="tripinfo_L_5" vType="car9@L_5" speedFactor="0.83" vaporized=""/>
    <tripinfo id="S_4" depart="6.00" departLane="1_0" departPos="7.10" departSpeed="11.18" departDelay="0.00" arrival="46.00" arrivalLane="-3_1" arrivalPos="200.00" arrivalSpeed="11.18" duration="40.00" routeLength="415.30" waitingTime="0.00" waitingCount="0" stopTime="0.00" timeLoss="-0.27" rerouteNo="0" devices="tripinfo_S_4" vType="car7@S_4" speedFactor="1.03" vaporized=""/>
    <tripinfo id="S_7" depart="13.00" departLane="3_1" departPos="6.10" departSpeed="11.18" departDelay="0.00" arrival="50.30" arrivalLane="-1_2" arrivalPos="200.00" arrivalSpeed="11.18" duration="37.30" routeLength="416.30" waitingTime="0.00" waitingCount="0" stopTime="0.00" timeLoss="0.00" rerouteNo="0" devices="tripinfo_S_7" vType="car6@S_7" speedFactor="0.89" vaporized=""/>
    <tripinfo id="S_3" depart="5.00" departLane="4_0" departPos="6.10" departSpeed="11.18" departDelay="0.00" arrival="58.60" arrivalLane="-2_2" arrivalPos="200.00" arrivalSpeed="11.18" duration="53.60" routeLength="416.30" waitingTime="15.40" waitingCount="1" stopTime="0.00" timeLoss="-4180.09" rerouteNo="0" devices="tripinfo_S_3" vType="car6@S_3" speedFactor="1.08" vaporized=""/>
    <tripinfo id="S_20" depart="21.10" departLane="4_0" departPos="5.10" departSpeed="11.18" departDelay="0.10" arrival="59.30" arrivalLane="-2_1" arrivalPos="200.00" arrivalSpeed="11.18" duration="38.20" routeLength="417.30" waitingTime="0.00" waitingCount="0" stopTime="0.00" timeLoss="-4058.73" rerouteNo="0" devices="tripinfo_S_20" vType="car5@S_20" speedFactor="1.02" vaporized=""/>
    <tripinfo id="L_6" depart="10.00" departLane="4_1" departPos="8.10" departSpeed="11.18" departDelay="0.00" arrival="59.40" arrivalLane="-1_2" arrivalPos="200.00" arrivalSpeed="11.18" duration="49.40" routeLength="411.45" waitingTime="11.20" waitingCount="1" stopTime="0.00" timeLoss="10.11" rerouteNo="0" devices="tripinfo_L_6" vType="car8@L_6" speedFactor="1.05" vaporized=""/>
    <tripinfo id="R_18" depart="20.00" departLane="4_0" departPos="6.10" departSpeed="11.18" departDelay="0.00" arrival="60.00" arrivalLane="-3_0" arrivalPos="200.00" arrivalSpeed="11.18" duration="40.00" routeLength="399.06" waitingTime="3.20" waitingCount="1" stopTime="0.00" timeLoss="1.54" rerouteNo="0" devices="tripinfo_R_18" vType="car6@R_18" speedFactor="0.94" vaporized=""/>
    <tripinfo id="L_12" depart="18.00" departLane="4_1" departPos="6.10" departSpeed="11.18" departDelay="0.00" arrival="61.60" arrivalLane="-1_0" arrivalPos="200.00" arrivalSpeed="11.18" duration="43.60" routeLength="423.16" waitingTime="4.50" waitingCount="1" stopTime="0.00" timeLoss="-4182.22" rerouteNo="0" devices="tripinfo_L_12" vType="car6@L_12" speedFactor="1.05" vaporized=""/>
    <tripinfo id="S_10" depart="18.00" departLane="1_2" departPos="5.10" departSpeed="11.18" departDelay="0.00" arrival="62.20" arrivalLane="-3_0" arrivalPos="200.00" arrivalSpeed="11.18" duration="44.20" routeLength="417.30" waitingTime="5.90" waitingCount="1" stopTime="0.00" timeLoss="-4058.72" rerouteNo="0" devices="tripinfo_S_10" vType="car5@S_10" speedFactor="1.09" vaporized=""/>
    <tripinfo id="R_15" depart="20.00" departLane="1_0" departPos="5.10" departSpeed="11.18" departDelay="0.00" arrival="63.40" arrivalLane="-4_0" arrivalPos="200.00" arrivalSpeed="11.18" duration="43.40" routeLength="400.06" waitingTime="5.20" waitingCount="2" stopTime="0.00" timeLoss="-4772.58" rerouteNo="0" devices="tripinfo_R_15" vType="car5@R_15" speedFactor="0.93" vaporized=""/>
    <tripinfo id="S_13" depart="19.00" departLane="3_2" departPos="5.10" departSpeed="11.18" departDelay="0.00" arrival="64.20" arrivalLane="-1_2" arrivalPos="200.00" arrivalSpeed="11.18" duration="45.20" routeLength="417.30" waitingTime="6.80" waitingCount="1" stopTime="0.00" timeLoss="-4179.18" rerouteNo="0" devices="tripinfo_S_13" vType="car5@S_13" speedFactor="1.12" vaporized=""/>
    <tripinfo id="L_19" depart="21.00" departLane="2_2" departPos="5.10" departSpeed="11.18" departDelay="0.00" arrival="65.50" arrivalLane="-3_2" arrivalPos="200.00" arrivalSpeed="11.18" duration="44.50" routeLength="414.45" waitingTime="6.30" waitingCount="1" stopTime="0.00" timeLoss="-4060.84" rerouteNo="0" devices="tripinfo_L_19" vType="car5@L_19" speedFactor="1.16" vaporized=""/>
    <tripinfo id="S_17" depart="20.00" departLane="3_0" departPos="7.10" departSpeed="11.18" departDelay="0.00" arrival="66.70" arrivalLane="-1_1" arrivalPos="200.00" arrivalSpeed="11.18" duration="46.70" routeLength="415.30" waitingTime="8.60" waitingCount="1" stopTime="0.00" timeLoss="-4295.59" rerouteNo="0" devices="tripinfo_S_17" vType="car7@S_17" speedFactor="0.94" vaporized=""/>
    <tripinfo id="L_8" depart="14.00" departLane="4_2" departPos="9.10" departSpeed="11.18" departDelay="0.00" arrival="67.30" arrivalLane="-1_2" arrivalPos="200.00" arrivalSpeed="11.18" duration="53.30" routeLength="410.45" waitingTime="14.40" waitingCount="2" stopTime="0.00" timeLoss="-3925.82" rerouteNo="0" devices="tripinfo_L_8" vType="car9@L_8" speedFactor="0.94" vaporized=""/>
    <tripinfo id="S_22" depart="23.00" departLane="1_1" departPos="9.10" departSpeed="11.18" departDelay="0.00" arrival="68.30" arrivalLane="-3_0" arrivalPos="200.00" arrivalSpeed="11.18" duration="45.30" routeLength="413.30" waitingTime="4.80" waitingCount="3" stopTime="0.00" timeLoss="-4833.73" rerouteNo="0" devices="tripinfo_S_22" vType="car9@S_22" speedFactor="0.98" vaporized=""/>
    <tripinfo id="L_24" depart="25.00" departLane="3_0" departPos="9.10" departSpeed="11.18" departDelay="0.00" arrival="69.00" arrivalLane="-4_2" arrivalPos="200.00" arrivalSpeed="11.18" duration="44.00" routeLength="410.45" waitingTime="4.70" waitingCount="2" stopTime="0.00" timeLoss="-5004.29" rerouteNo="0" devices="tripinfo_L_24" vType="car9@L_24" speedFactor="0.83" vaporized=""/>
    <tripinfo id="L_23" depart="25.00" departLane="1_2" departPos="7.10" departSpeed="11.18" departDelay="0.00" arrival="69.90" arrivalLane="-2_2" arrivalPos="200.00" arrivalSpeed="11.18" duration="44.90" routeLength="412.45" waitingTime="6.90" waitingCount="1" stopTime="0.00" timeLoss="-4298.11" rerouteNo="0" devices="tripinfo_L_23" vType="car7@L_23" speedFactor="0.89" vaporized=""/>
    <tripinfo id="S_35" depart="32.00" departLane="1_0" departPos="5.10" departSpeed="11.18" departDelay="0.00" arrival="71.80" arrivalLane="-3_1" arrivalPos="200.00" arrivalSpeed="11.18" duration="39.80" routeLength="417.30" waitingTime="1.50" waitingCount="1" stopTime="0.00" timeLoss="-4058.71" rerouteNo="0" devices="tripinfo_S_35" vType="car5@S_35" speedFactor="1.02" vaporized=""/>
    <tripinfo id="S_25" depart="26.00" departLane="3_1" departPos="7.10" departSpeed="11.18" departDelay="0.00" arrival="71.90" arrivalLane="-1_1" arrivalPos="200.00" arrivalSpeed="11.18" duration="45.90" routeLength="415.30" waitingTime="6.80" waitingCount="2" stopTime="0.00" timeLoss="-3949.69" rerouteNo="0" devices="tripinfo_S_25" vType="car7@S_25" speedFactor="0.87" vaporized=""/>
    <tripinfo id="S_30" depart="29.00" departLane="3_2" departPos="6.10" departSpeed="11.18" departDelay="0.00" arrival="72.80" arrivalLane="-1_1" arrivalPos="200.00" arrivalSpeed="11.18" duration="43.80" routeLength="416.30" waitingTime="4.70" waitingCount="2" stopTime="0.00" timeLoss="6.47" rerouteNo="0" devices="tripinfo_S_30" vType="car6@S_30" speedFactor="1.18" vaporized=""/>
    <tripinfo id="L_9" depart="17.00" departLane="4_0" departPos="5.10" departSpeed="11.18" departDelay="0.00" arrival="74.30" arrivalLane="-1_2" arrivalPos="200.00" arrivalSpeed="11.18" duration="57.30" routeLength="414.45" waitingTime="17.10" waitingCount="3" stopTime="0.00" timeLoss="-4587.45" rerouteNo="0" devices="tripinfo_L_9" vType="car5@L_9" speedFactor="0.86" vaporized=""/>
    <tripinfo id="S_29" depart="29.00" departLane="2_1" departPos="5.10" departSpeed="11.18" departDelay="0.00" arrival="75.90" arrivalLane="-4_2" arrivalPos="200.00" arrivalSpeed="11.18" duration="46.90" routeLength="417.30" waitingTime="8.50" waitingCount="1" stopTime="0.00" timeLoss="-4686.07" rerouteNo="0" devices="tripinfo_S_29" vType="car5@S_29" speedFactor="0.93" vaporized=""/>
    <tripinfo id="S_34" depart="31.00" departLane="4_0" departPos="5.10" departSpeed="11.18" departDelay="0.00" arrival="76.90" arrivalLane="-2_1" arrivalPos="200.00" arrivalSpeed="11.18" duration="45.90" routeLength="417.30" waitingTime="7.60" waitingCount="1" stopTime="0.00" timeLoss="-4058.72" rerouteNo="0" devices="tripinfo_S_34" vType="car5@S_34" speedFactor="0.99" vaporized=""/>
    <tripinfo id="R_39" depart="35.00" departLane="4_0" departPos="9.10" departSpeed="11.18" departDelay="0.00" arrival="77.10" arrivalLane="-3_0" arrivalPos="200.00" arrivalSpeed="11.18" duration="42.10" routeLength="396.06" waitingTime="5.60" waitingCount="1" stopTime="0.00" timeLoss="-4529.20" rerouteNo="0" devices="tripinfo_R_39" vType="car9@R_39" speedFactor="0.90" vaporized=""/>
    <tripinfo id="L_28" depart="28.00" departLane="1_1" departPos="6.10" departSpeed="11.18" departDelay="0.00" arrival="77.50" arrivalLane="-2_2" arrivalPos="200.00" arrivalSpeed="11.18" duration="49.50" routeLength="413.45" waitingTime="10.20" waitingCount="2" stopTime="0.00" timeLoss="-4963.93" rerouteNo="0" devices="tripinfo_L_28" vType="car6@L_28" speedFactor="1.13" vaporized=""/>
    <tripinfo id="R_42" depart="37.00" departLane="4_1" departPos="5.10" departSpeed="11.18" departDelay="0.00" arrival="78.20" arrivalLane="-3_0" arrivalPos="200.00" arrivalSpeed="11.18" duration="41.20" routeLength="400.06" waitingTime="4.10" waitingCount="1" stopTime="0.00" timeLoss="2.78" rerouteNo="0" devices="tripinfo_R_42" vType="car5@R_42" speedFactor="1.09" vaporized=""/>
    <tripinfo id="S_32" depart="31.00" departLane="1_0" departPos="8.10" departSpeed="11.18" departDelay="0.00" arrival="78.40" arrivalLane="-3_2" arrivalPos="200.00" arrivalSpeed="11.18" duration="47.40" routeLength="414.30" waitingTime="8.20" waitingCount="2" stopTime="0.00" timeLoss="10.27" rerouteNo="0" devices="tripinfo_S_32" vType="car8@S_32" speedFactor="1.01" vaporized=""/>
    <tripinfo id="R_16" depart="20.00" departLane="2_0" departPos="5.10" departSpeed="11.18" departDelay="0.00" arrival="78.50" arrivalLane="-1_0" arrivalPos="200.00" arrivalSpeed="11.18" duration="58.50" routeLength="400.06" waitingTime="21.20" waitingCount="1" stopTime="0.00" timeLoss="19.44" rerouteNo="0" devices="tripinfo_R_16" vType="car5@R_16" speedFactor="0.88" vaporized=""/>
    <tripinfo id="S_11" depart="18.00" departLane="2_0" departPos="5.10" departSpeed="11.18" departDelay="0.00" arrival="79.00" arrivalLane="-4_0" arrivalPos="200.00" arrivalSpeed="11.18" duration="61.00" routeLength="417.30" waitingTime="22.70" waitingCount="1" stopTime="0.00" timeLoss="-4058.72" rerouteNo="0" devices="tripinfo_S_11" vType="car5@S_11" speedFactor="1.03" vaporized=""/>
    <tripinfo id="R_36" depart="32.00" departLane="2_2" departPos="8.10" departSpeed="11.18" departDelay="0.00" arrival="79.30" arrivalLane="-1_0" arrivalPos="200.00" arrivalSpeed="11.18" duration="47.30" routeLength="397.06" waitingTime="9.70" waitingCount="1" stopTime="0.00" timeLoss="6.85" rerouteNo="0" devices="tripinfo_R_36" vType="car8@R_36" speedFactor="0.97" vaporized=""/>
    <tripinfo id="R_47" depart="40.00" departLane="2_1" departPos="8.10" departSpeed="11.18" departDelay="0.00" arrival="80.40" arrivalLane="-1_0" arrivalPos="200.00" arrivalSpeed="11.18" duration="40.40" routeLength="397.06" waitingTime="3.10" waitingCount="1" stopTime="0.00" timeLoss="1.84" rerouteNo="0" devices="tripinfo_R_47" vType="car8@R_47" speedFactor="0.90" vaporized=""/>
    <tripinfo id="R_40" depart="36.00" departLane="4_2" departPos="8.10" departSpeed="11.18" departDelay="0.00" arrival="81.40" arrivalLane="-3_0" arrivalPos="200.00" arrivalSpeed="11.18" duration="45.40" routeLength="397.06" waitingTime="4.00" waitingCount="2" stopTime="0.00" timeLoss="-4271.32" rerouteNo="0" devices="tripinfo_R_40" vType="car8@R_40" speedFactor="1.03" vaporized=""/>
    <tripinfo id="S_41" depart="37.00" departLane="1_1" departPos="6.10" departSpeed="11.18" departDelay="0.00" arrival="83.50" arrivalLane="-3_2" arrivalPos="200.00" arrivalSpeed="11.18" duration="46.50" routeLength="416.30" waitingTime="7.10" waitingCount="2" stopTime="0.00" timeLoss="-4973.48" rerouteNo="0" devices="tripinfo_S_41" vType="car6@S_41" speedFactor="0.96" vaporized=""/>
    <tripinfo id="S_50" depart="42.00" departLane="3_2" departPos="8.10" departSpeed="11.18" departDelay="0.00" arrival="83.60" arrivalLane="-1_1" arrivalPos="200.00" arrivalSpeed="11.18" duration="41.60" routeLength="414.30" waitingTime="3.60" waitingCount="1" stopTime="0.00" timeLoss="-4405.61" rerouteNo="0" devices="tripinfo_S_50" vType="car8@S_50" speedFactor="0.85" vaporized=""/>
    <tripinfo id="R_49" depart="45.00" departLane="4_0" departPos="5.10" departSpeed="11.18" departDelay="4.00" arrival="87.50" arrivalLane="-3_0" arrivalPos="200.00" arrivalSpeed="11.18" duration="42.50" routeLength="400.06" waitingTime="4.90" waitingCount="2" stopTime="0.00" timeLoss="3.76" rerouteNo="0" devices="tripinfo_R_49" vType="car5@R_49" speedFactor="0.85" vaporized=""/>
    <tripinfo id="S_46" depart="39.50" departLane="4_1" departPos="8.10" departSpeed="11.18" departDelay="0.50" arrival="88.10" arrivalLane="-2_0" arrivalPos="200.00" arrivalSpeed="11.18" duration="48.60" routeLength="414.30" waitingTime="6.20" waitingCount="3" stopTime="0.00" timeLoss="-4802.14" rerouteNo="0" devices="tripinfo_S_46" vType="car8@S_46" speedFactor="1.00" vaporized=""/>
    <tripinfo id="S_37" depart="33.00" departLane="4_1" departPos="8.10" departSpeed="11.18" departDelay="0.00" arrival="88.40" arrivalLane="-2_1" arrivalPos="200.00" arrivalSpeed="11.18" duration="55.40" routeLength="414.30" waitingTime="16.00" waitingCount="2" stopTime="0.00" timeLoss="-4742.66" rerouteNo="0" devices="tripinfo_S_37" vType="car8@S_37" speedFactor="1.18" vaporized=""/>
    <tripinfo id="L_31" depart="30.30" departLane="3_1" departPos="7.10" departSpeed="11.18" departDelay="0.30" arrival="90.20" arrivalLane="-4_2" arrivalPos="200.00" arrivalSpeed="11.18" duration="59.90" routeLength="412.45" waitingTime="20.60" waitingCount="2" stopTime="0.00" timeLoss="-4839.87" rerouteNo="0" devices="tripinfo_L_31" vType="car7@L_31" speedFactor="1.15" vaporized=""/>
    <tripinfo id="L_55" depart="46.00" departLane="2_1" departPos="6.10" departSpeed="11.18" departDelay="0.00" arrival="90.70" arrivalLane="-3_2" arrivalPos="200.00" arrivalSpeed="11.18" duration="44.70" routeLength="413.45" waitingTime="0.00" waitingCount="0" stopTime="0.00" timeLoss="-8.16" rerouteNo="0" devices="tripinfo_L_55" vType="car6@L_55" speedFactor="1.00" vaporized=""/>
    <tripinfo id="S_52" depart="43.00" departLane="2_2" departPos="8.10" departSpeed="11.18" departDelay="0.00" arrival="91.60" arrivalLane="-4_1" arrivalPos="200.00" arrivalSpeed="11.18" duration="48.60" routeLength="414.30" waitingTime="10.60" waitingCount="1" stopTime="0.00" timeLoss="-4405.61" rerouteNo="0" devices="tripinfo_S_52" vType="car8@S_52" speedFactor="1.02" vaporized=""/>
    <tripinfo id="R_62" depart="50.00" departLane="2_1" departPos="9.10" departSpeed="11.18" departDelay="0.00" arrival="91.90" arrivalLane="-1_1" arrivalPos="200.00" arrivalSpeed="11.18" duration="41.90" routeLength="401.22" waitingTime="4.40" waitingCount="1" stopTime="0.00" timeLoss="2.74" rerouteNo="0" devices="tripinfo_R_62" vType="car9@R_62" speedFactor="1.02" vaporized=""/>
    <tripinfo id="S_44" depart="38.10" departLane="4_1" departPos="5.10" departSpeed="11.18" departDelay="0.10" arrival="92.50" arrivalLane="-2_1" arrivalPos="200.00" arrivalSpeed="11.18" duration="54.40" routeLength="417.30" waitingTime="12.70" waitingCount="3" stopTime="0.00" timeLoss="-4615.71" rerouteNo="0" devices="tripinfo_S_44" vType="car5@S_44" speedFactor="1.04" vaporized=""/>
    <tripinfo id="L_14" depart="19.00" departLane="4_1" departPos="6.10" departSpeed="11.18" departDelay="0.00" arrival="92.70" arrivalLane="-1_2" arrivalPos="200.00" arrivalSpeed="11.18" duration="73.70" routeLength="413.45" waitingTime="32.50" waitingCount="4" stopTime="0.00" timeLoss="-4770.79" rerouteNo="0" devices="tripinfo_L_14" vType="car6@L_14" speedFactor="0.99" vaporized=""/>
    <tripinfo id="S_61" depart="49.00" departLane="4_0" departPos="8.10" departSpeed="11.18" departDelay="0.00" arrival="93.20" arrivalLane="-2_1" arrivalPos="200.00" arrivalSpeed="11.18" duration="44.20" routeLength="414.30" waitingTime="5.10" waitingCount="2" stopTime="0.00" timeLoss="7.09" rerouteNo="0" devices="tripinfo_S_61" vType="car8@S_61" speedFactor="1.12" vaporized=""/>
    <tripinfo id="R_58" depart="48.00" departLane="2_2" departPos="7.10" departSpeed="11.18" departDelay="0.00" arrival="94.60" arrivalLane="-1_0" arrivalPos="200.00" arrivalSpeed="11.18" duration="46.60" routeLength="398.06" waitingTime="10.00" waitingCount="1" stopTime="0.00" timeLoss="-4298.17" rerouteNo="0" devices="tripinfo_R_58" vType="car7@R_58" speedFactor="1.02" vaporized=""/>
    <tripinfo id="L_57" depart="48.00" departLane="1_1" departPos="8.10" departSpeed="11.18" departDelay="0.00" arrival="95.20" arrivalLane="-2_2" arrivalPos="200.00" arrivalSpeed="11.18" duration="47.20" routeLength="411.45" waitingTime="9.30" waitingCount="1" stopTime="0.00" timeLoss="-4407.73" rerouteNo="0" devices="tripinfo_L_57" vType="car8@L_57" speedFactor="1.14" vaporized=""/>
    <tripinfo id="R_53" depart="45.00" departLane="1_2" departPos="7.10" departSpeed="11.18" departDelay="0.00" arrival="95.90" arrivalLane="-4_0" arrivalPos="200.00" arrivalSpeed="11.18" duration="50.90" routeLength="398.06" waitingTime="14.30" waitingCount="1" stopTime="0.00" timeLoss="-4298.10" rerouteNo="0" devices="tripinfo_R_53" vType="car7@R_53" speedFactor="1.10" vaporized=""/>
    <tripinfo id="L_21" depart="22.50" departLane="4_1" departPos="8.10" departSpeed="11.18" departDelay="0.50" arrival="96.30" arrivalLane="-1_2" arrivalPos="200.00" arrivalSpeed="11.18" duration="73.80" routeLength="411.45" waitingTime="31.80" waitingCount="5" stopTime="0.00" timeLoss="-4642.42" rerouteNo="0" devices="tripinfo_L_21" vType="car8@L_21" speedFactor="1.01" vaporized=""/>
    <tripinfo id="R_60" depart="49.00" departLane="2_2" departPos="6.10" departSpeed="11.18" departDelay="0.00" arrival="96.50" arrivalLane="-1_0" arrivalPos="200.00" arrivalSpeed="11.18" duration="47.50" routeLength="399.06" waitingTime="7.70" waitingCount="1" stopTime="0.00" timeLoss="-4779.64" rerouteNo="0" devices="tripinfo_R_60" vType="car6@R_60" speedFactor="1.08" vaporized=""/>
    <tripinfo id="S_65" depart="54.00" departLane="4_2" departPos="6.10" departSpeed="11.18" departDelay="0.00" arrival="96.80" arrivalLane="-2_1" arrivalPos="200.00" arrivalSpeed="11.18" duration="42.80" routeLength="416.30" waitingTime="3.80" waitingCount="2" stopTime="0.00" timeLoss="-4286.65" rerouteNo="0" devices="tripinfo_S_65" vType="car6@S_65" speedFactor="0.88" vaporized=""/>
    <tripinfo id="L_26" depart="26.00" departLane="4_1" departPos="5.10" departSpeed="11.18" departDelay="0.00" arrival="97.40" arrivalLane="-1_2" arrivalPos="200.00" arrivalSpeed="11.18" duration="71.40" routeLength="414.45" waitingTime="29.70" waitingCount="4" stopTime="0.00" timeLoss="31.48" rerouteNo="0" devices="tripinfo_L_26" vType="car5@L_26" speedFactor="0.92" vaporized=""/>
    <tripinfo id="R_68" depart="58.20" departLane="2_2" departPos="6.10" departSpeed="11.18" departDelay="0.20" arrival="98.20" arrivalLane="-1_0" arrivalPos="200.00" arrivalSpeed="11.18" duration="40.00" routeLength="399.06" waitingTime="1.10" waitingCount="2" stopTime="0.00" timeLoss="-3.87" rerouteNo="0" devices="tripinfo_R_68" vType="car6@R_68" speedFactor="1.04" vaporized=""/>
    <tripinfo id="S_33" depart="31.40" departLane="3_2" departPos="5.10" departSpeed="11.18" departDelay="0.40" arrival="99.90" arrivalLane="-1_2" arrivalPos="200.00" arrivalSpeed="11.18" duration="68.50" routeLength="417.30" waitingTime="27.70" waitingCount="3" stopTime="0.00" timeLoss="-4974.26" rerouteNo="0" devices="tripinfo_S_33" vType="car5@S_33" speedFactor="1.17" vaporized=""/>
    <tripinfo id="L_63" depart="52.00" departLane="2_1" departPos="8.10" departSpeed="11.18" departDelay="0.00" arrival="100.30" arrivalLane="-3_2" arrivalPos="200.00" arrivalSpeed="11.18" duration="48.30" routeLength="411.45" waitingTime="7.80" waitingCount="1" stopTime="0.00" timeLoss="-4494.72" rerouteNo="0" devices="tripinfo_L_63" vType="car8@L_63" speedFactor="0.99" vaporized=""/>
    <tripinfo id="R_59" depart="49.40" departLane="1_2" departPos="8.10" departSpeed="11.18" departDelay="0.40" arrival="100.90" arrivalLane="-4_0" arrivalPos="200.00" arrivalSpeed="11.18" duration="51.50" routeLength="397.06" waitingTime="13.20" waitingCount="2" stopTime="0.00" timeLoss="13.20" rerouteNo="0" devices="tripinfo_R_59" vType="car8@R_59" speedFactor="0.97" vaporized=""/>
    <tripinfo id="S_54" depart="46.00" departLane="1_2" departPos="9.10" departSpeed="11.18" departDelay="0.00" arrival="101.30" arrivalLane="-3_0" arrivalPos="200.00" arrivalSpeed="11.18" duration="55.30" routeLength="413.30" waitingTime="13.80" waitingCount="2" stopTime="0.00" timeLoss="-4863.96" rerouteNo="0" devices="tripinfo_S_54" vType="car9@S_54" speedFactor="1.00" vaporized=""/>
    <tripinfo id="S_69" depart="58.00" departLane="3_2" departPos="9.10" departSpeed="11.18" departDelay="0.00" arrival="101.80" arrivalLane="-1_1" arrivalPos="200.00" arrivalSpeed="11.18" duration="43.80" routeLength="413.30" waitingTime="5.80" waitingCount="1" stopTime="0.00" timeLoss="-4526.49" rerouteNo="0" devices="tripinfo_S_69" vType="car9@S_69" speedFactor="1.02" vaporized=""/>
    <tripinfo id="S_66" depart="56.00" departLane="1_1" departPos="9.10" departSpeed="11.18" departDelay="0.00" arrival="102.00" arrivalLane="-3_2" arrivalPos="200.00" arrivalSpeed="11.18" duration="46.00" routeLength="413.30" waitingTime="6.90" waitingCount="2" stopTime="0.00" timeLoss="-4703.28" rerouteNo="0" devices="tripinfo_S_66" vType="car9@S_66" speedFactor="0.91" vaporized=""/>
    <tripinfo id="S_76" depart="65.00" departLane="3_1" departPos="9.10" departSpeed="11.18" departDelay="0.00" arrival="103.10" arrivalLane="-1_1" arrivalPos="200.00" arrivalSpeed="11.18" duration="38.10" routeLength="413.30" waitingTime="0.00" waitingCount="0" stopTime="0.00" timeLoss="-0.08" rerouteNo="0" devices="tripinfo_S_76" vType="car9@S_76" speedFactor="1.03" vaporized=""/>
    <tripinfo id="R_75" depart="64.00" departLane="4_1" departPos="8.10" departSpeed="11.18" departDelay="0.00" arrival="104.00" arrivalLane="-3_0" arrivalPos="200.00" arrivalSpeed="11.18" duration="40.00" routeLength="397.06" waitingTime="3.50" waitingCount="1" stopTime="0.00" timeLoss="-4408.22" rerouteNo="0" devices="tripinfo_R_75" vType="car8@R_75" speedFactor="0.98" vaporized=""/>
    <tripinfo id="R_74" depart="64.00" departLane="3_2" departPos="6.10" departSpeed="11.18" departDelay="0.00" arrival="104.40" arrivalLane="-2_0" arrivalPos="200.00" arrivalSpeed="11.18" duration="40.40" routeLength="399.06" waitingTime="3.70" waitingCount="1" stopTime="0.00" timeLoss="-4182.74" rerouteNo="0" devices="tripinfo_R_74" vType="car6@R_74" speedFactor="0.96" vaporized=""/>
    <tripinfo id="L_67" depart="57.00" departLane="2_0" departPos="9.10" departSpeed="11.18" departDelay="0.00" arrival="105.50" arrivalLane="-3_2" arrivalPos="200.00" arrivalSpeed="11.18" duration="48.50" routeLength="410.45" waitingTime="9.60" waitingCount="2" stopTime="0.00" timeLoss="-4809.36" rerouteNo="0" devices="tripinfo_L_67" vType="car9@L_67" speedFactor="0.91" vaporized=""/>
    <tripinfo id="L_71" depart="59.00" departLane="1_2" departPos="8.10" departSpeed="11.18" departDelay="0.00" arrival="106.20" arrivalLane="-2_2" arrivalPos="200.00" arrivalSpeed="11.18" duration="47.20" routeLength="411.45" waitingTime="7.30" waitingCount="3" stopTime="0.00" timeLoss="-4513.30" rerouteNo="0" devices="tripinfo_L_71" vType="car8@L_71" speedFactor="0.97" vaporized=""/>
    <tripinfo id="R_78" depart="66.00" departLane="4_2" departPos="7.10" departSpeed="11.18" departDelay="0.00" arrival="106.90" arrivalLane="-3_0" arrivalPos="200.00" arrivalSpeed="11.18" duration="40.90" routeLength="398.06" waitingTime="3.20" waitingCount="2" stopTime="0.00" timeLoss="-4966.77" rerouteNo="0" devices="tripinfo_R_78" vType="car7@R_78" speedFactor="1.01" vaporized=""/>
    <tripinfo id="L_27" depart="27.00" departLane="4_0" departPos="6.10" departSpeed="11.18" departDelay="0.00" arrival="107.50" arrivalLane="-1_2" arrivalPos="200.00" arrivalSpeed="11.18" duration="80.50" routeLength="413.45" waitingTime="37.70" waitingCount="5" stopTime="0.00" timeLoss="-4002.93" rerouteNo="0" devices="tripinfo_L_27" vType="car6@L_27" speedFactor="0.95" vaporized=""/>
    <tripinfo id="S_70" depart="58.00" departLane="4_2" departPos="6.10" departSpeed="11.18" departDelay="0.00" arrival="107.60" arrivalLane="-2_1" arrivalPos="200.00" arrivalSpeed="11.18" duration="49.60" routeLength="416.30" waitingTime="10.40" waitingCount="2" stopTime="0.00" timeLoss="-4842.13" rerouteNo="0" devices="tripinfo_S_70" vType="car6@S_70" speedFactor="1.02" vaporized=""/>
    <tripinfo id="L_51" depart="42.00" departLane="4_1" departPos="6.10" departSpeed="11.18" departDelay="0.00" arrival="108.40" arrivalLane="-1_2" arrivalPos="200.00" arrivalSpeed="11.18" duration="66.40" routeLength="413.45" waitingTime="26.00" waitingCount="4" stopTime="0.00" timeLoss="27.00" rerouteNo="0" devices="tripinfo_L_51" vType="car6@L_51" speedFactor="1.17" vaporized=""/>
    <tripinfo id="S_80" depart="67.00" departLane="4_1" departPos="7.10" departSpeed="11.18" departDelay="0.00" arrival="111.60" arrivalLane="-2_1" arrivalPos="200.00" arrivalSpeed="11.18" duration="44.60" routeLength="415.30" waitingTime="5.20" waitingCount="2" stopTime="0.00" timeLoss="-4978.12" rerouteNo="0" devices="tripinfo_S_80" vType="car7@S_80" speedFactor="1.03" vaporized=""/>
    <tripinfo id="S_48" depart="44.60" departLane="4_0" departPos="5.10" departSpeed="11.18" departDelay="4.60" arrival="111.90" arrivalLane="-2_2" arrivalPos="200.00" arrivalSpeed="11.18" duration="67.30" routeLength="417.30" waitingTime="25.90" waitingCount="4" stopTime="0.00" timeLoss="-4338.72" rerouteNo="0" devices="tripinfo_S_48" vType="car5@S_48" speedFactor="0.88" vaporized=""/>
    <tripinfo id="L_56" depart="46.00" departLane="4_1" departPos="5.10" departSpeed="11.18" departDelay="0.00" arrival="112.60" arrivalLane="-1_2" arrivalPos="200.00" arrivalSpeed="11.18" duration="66.60" routeLength="414.45" waitingTime="25.10" waitingCount="4" stopTime="0.00" timeLoss="26.72" rerouteNo="0" devices="tripinfo_L_56" vType="car5@L_56" speedFactor="0.90" vaporized=""/>
    <tripinfo id="L_38" depart="34.00" departLane="3_1" departPos="9.10" departSpeed="11.18" departDelay="0.00" arrival="113.20" arrivalLane="-4_2" arrivalPos="200.00" arrivalSpeed="11.18" duration="79.20" routeLength="410.45" waitingTime="38.50" waitingCount="3" stopTime="0.00" timeLoss="-4623.73" rerouteNo="0" devices="tripinfo_L_38" vType="car9@L_38" speedFactor="1.10" vaporized=""/>