<?xml version="1.0" encoding="UTF-8"?>

<!-- generated on 04/15/21 23:39:14 by Eclipse SUMO sumo Version 1.8.0
<configuration xmlns:xsi="http://www.w3.org/2001/XMLSchema-instance" xsi:noNamespaceSchemaLocation="http://sumo.dlr.de/xsd/sumoConfiguration.xsd">

    <input>
        <net-file value="data/lane2by2.net.xml"/>
        <route-files value="data/icacc+.rou.xml"/>
    </input>

    <output>
        <tripinfo-output value="tripinfo.xml"/>
    </output>

    <time>
        <begin value="0"/>
        <step-length value="0.1"/>
    </time>

    <processing>
        <threads value="8"/>
        <collision.mingap-factor value="0"/>
        <time-to-teleport value="-1"/>
        <default.speeddev value="1"/>
    </processing>

    <report>
        <verbose value="true"/>
        <log value="error_log.txt"/>
        <no-step-log value="true"/>
    </report>

    <traci_server>
        <remote-port value="1421"/>
    </traci_server>

    <gui_only>
        <start value="true"/>
        <tracker-interval value="0.1"/>
    </gui_only>

</configuration>
-->

<tripinfos xmlns:xsi="http://www.w3.org/2001/XMLSchema-instance" xsi:noNamespaceSchemaLocation="http://sumo.dlr.de/xsd/tripinfo_file.xsd">
    <tripinfo id="RX_7" depart="0.00" departLane="002_002_3_0" departPos="7.10" departSpeed="11.18" departDelay="0.00" arrival="36.10" arrivalLane="002_003_4_0" arrivalPos="200.00" arrivalSpeed="11.18" duration="36.10" routeLength="401.93" waitingTime="0.00" waitingCount="0" stopTime="0.00" timeLoss="-2.12" rerouteNo="1" devices="tripinfo_RX_7" vType="car7@RX_7" speedFactor="1.91" vaporized=""/>
    <tripinfo id="LX_1" depart="0.00" departLane="001_001_4_2" departPos="8.10" departSpeed="11.18" departDelay="0.00" arrival="37.40" arrivalLane="000_001_3_2" arrivalPos="200.00" arrivalSpeed="11.18" duration="37.40" routeLength="415.11" waitingTime="0.00" waitingCount="0" stopTime="0.00" timeLoss="-2.12" rerouteNo="1" devices="tripinfo_LX_1" vType="car8@LX_1" speedFactor="1.60" vaporized=""/>
    <tripinfo id="LX_4" depart="0.00" departLane="001_002_1_2" departPos="5.10" departSpeed="11.18" departDelay="0.00" arrival="37.70" arrivalLane="001_003_4_2" arrivalPos="200.00" arrivalSpeed="11.18" duration="37.70" routeLength="418.12" waitingTime="0.00" waitingCount="0" stopTime="0.00" timeLoss="-2.12" rerouteNo="1" devices="tripinfo_LX_4" vType="car5@LX_4" speedFactor="1.30" vaporized=""/>
    <tripinfo id="LX_2" depart="0.00" departLane="002_001_3_2" departPos="8.10" departSpeed="11.18" departDelay="0.00" arrival="38.00" arrivalLane="002_000_2_2" arrivalPos="200.00" arrivalSpeed="11.18" duration="38.00" routeLength="415.12" waitingTime="0.00" waitingCount="0" stopTime="0.00" timeLoss="-2.13" rerouteNo="1" devices="tripinfo_LX_2" vType="car8@LX_2" speedFactor="1.10" vaporized=""/>
    <tripinfo id="RX_17" depart="2.00" departLane="001_002_2_0" departPos="7.10" departSpeed="11.18" departDelay="0.00" arrival="38.70" arrivalLane="000_002_3_0" arrivalPos="200.00" arrivalSpeed="11.18" duration="36.70" routeLength="401.93" waitingTime="0.00" waitingCount="0" stopTime="0.00" timeLoss="-2.12" rerouteNo="1" devices="tripinfo_RX_17" vType="car7@RX_17" speedFactor="1.91" vaporized=""/>
    <tripinfo id="RX_13" depart="2.00" departLane="001_001_1_0" departPos="9.10" departSpeed="11.18" departDelay="0.00" arrival="38.80" arrivalLane="001_000_2_0" arrivalPos="200.00" arrivalSpeed="11.18" duration="36.80" routeLength="399.93" waitingTime="0.00" waitingCount="0" stopTime="0.00" timeLoss="-2.19" rerouteNo="1" devices="tripinfo_RX_13" vType="car9@RX_13" speedFactor="1.46" vaporized=""/>
    <tripinfo id="LX_19" depart="3.00" departLane="001_001_4_2" departPos="7.10" departSpeed="11.18" departDelay="0.00" arrival="40.50" arrivalLane="000_001_3_2" arrivalPos="200.00" arrivalSpeed="11.18" duration="37.50" routeLength="416.11" waitingTime="0.00" waitingCount="0" stopTime="0.00" timeLoss="-2.12" rerouteNo="1" devices="tripinfo_LX_19" vType="car7@LX_19" speedFactor="1.05" vaporized=""/>
    <tripinfo id="RX_37" depart="5.00" departLane="001_002_2_0" departPos="5.10" departSpeed="11.18" departDelay="0.00" arrival="41.30" arrivalLane="000_002_3_0" arrivalPos="200.00" arrivalSpeed="11.18" duration="36.30" routeLength="403.93" waitingTime="0.00" waitingCount="0" stopTime="0.00" timeLoss="-2.42" rerouteNo="1" devices="tripinfo_RX_37" vType="car5@RX_37" speedFactor="1.16" vaporized=""/>
    <tripinfo id="LX_30" depart="4.00" departLane="002_002_2_2" departPos="6.10" departSpeed="11.18" departDelay="0.00" arrival="41.60" arrivalLane="003_002_1_2" arrivalPos="200.00" arrivalSpeed="11.18" duration="37.60" routeLength="417.11" waitingTime="0.00" waitingCount="0" stopTime="0.00" timeLoss="-2.12" rerouteNo="1" devices="tripinfo_LX_30" vType="car6@LX_30" speedFactor="1.17" vaporized=""/>
    <tripinfo id="LX_25" depart="4.10" departLane="001_001_4_2" departPos="5.10" departSpeed="11.18" departDelay="0.10" arrival="41.80" arrivalLane="000_001_3_2" arrivalPos="200.00" arrivalSpeed="11.18" duration="37.70" routeLength="418.11" waitingTime="0.00" waitingCount="0" stopTime="0.00" timeLoss="-2.12" rerouteNo="1" devices="tripinfo_LX_25" vType="car5@LX_25" speedFactor="1.92" vaporized=""/>
    <tripinfo id="RX_39" depart="6.00" departLane="001_001_1_0" departPos="8.10" departSpeed="11.18" departDelay="0.00" arrival="42.00" arrivalLane="001_000_2_0" arrivalPos="200.00" arrivalSpeed="11.18" duration="36.00" routeLength="400.93" waitingTime="0.00" waitingCount="0" stopTime="0.00" timeLoss="-2.61" rerouteNo="1" devices="tripinfo_RX_39" vType="car8@RX_39" speedFactor="1.00" vaporized=""/>
    <tripinfo id="LX_26" depart="4.00" departLane="002_001_3_2" departPos="8.10" departSpeed="11.18" departDelay="0.00" arrival="42.40" arrivalLane="002_000_2_2" arrivalPos="200.00" arrivalSpeed="11.18" duration="38.40" routeLength="415.12" waitingTime="0.00" waitingCount="0" stopTime="0.00" timeLoss="-2.17" rerouteNo="1" devices="tripinfo_LX_26" vType="car8@LX_26" speedFactor="1.38" vaporized=""/>
    <tripinfo id="RX_52" depart="7.00" departLane="002_002_3_0" departPos="7.10" departSpeed="11.18" departDelay="0.00" arrival="43.10" arrivalLane="002_003_4_0" arrivalPos="200.00" arrivalSpeed="11.18" duration="36.10" routeLength="401.93" waitingTime="0.00" waitingCount="0" stopTime="0.00" timeLoss="-2.25" rerouteNo="1" devices="tripinfo_RX_52" vType="car7@RX_52" speedFactor="1.34" vaporized=""/>
    <tripinfo id="RX_46" depart="7.10" departLane="001_001_1_0" departPos="5.10" departSpeed="11.18" departDelay="0.10" arrival="43.40" arrivalLane="001_000_2_0" arrivalPos="200.00" arrivalSpeed="11.18" duration="36.30" routeLength="403.93" waitingTime="0.00" waitingCount="0" stopTime="0.00" timeLoss="-2.54" rerouteNo="1" devices="tripinfo_RX_46" vType="car5@RX_46" speedFactor="1.05" vaporized=""/>
    <tripinfo id="LX_34" depart="5.50" departLane="002_001_3_2" departPos="9.10" departSpeed="11.18" departDelay="0.50" arrival="43.50" arrivalLane="002_000_2_2" arrivalPos="200.00" arrivalSpeed="11.18" duration="38.00" routeLength="414.12" waitingTime="0.00" waitingCount="0" stopTime="0.00" timeLoss="-2.15" rerouteNo="1" devices="tripinfo_LX_34" vType="car9@LX_34" speedFactor="1.24" vaporized=""/>
    <tripinfo id="RX_56" depart="8.00" departLane="002_001_4_0" departPos="9.10" departSpeed="11.18" departDelay="0.00" arrival="44.20" arrivalLane="003_001_1_0" arrivalPos="200.00" arrivalSpeed="11.18" duration="36.20" routeLength="399.93" waitingTime="0.00" waitingCount="0" stopTime="0.00" timeLoss="-2.60" rerouteNo="1" devices="tripinfo_RX_56" vType="car9@RX_56" speedFactor="1.00" vaporized=""/>
    <tripinfo id="LX_51" depart="7.00" departLane="002_002_2_2" departPos="9.10" departSpeed="11.18" departDelay="0.00" arrival="44.50" arrivalLane="003_002_1_2" arrivalPos="200.00" arrivalSpeed="11.18" duration="37.50" routeLength="414.11" waitingTime="0.00" waitingCount="0" stopTime="0.00" timeLoss="-2.13" rerouteNo="1" devices="tripinfo_LX_51" vType="car9@LX_51" speedFactor="1.87" vaporized=""/>
    <tripinfo id="LX_47" depart="7.00" departLane="001_001_4_2" departPos="7.10" departSpeed="11.18" departDelay="0.00" arrival="45.30" arrivalLane="000_001_3_2" arrivalPos="200.00" arrivalSpeed="11.18" duration="38.30" routeLength="416.11" waitingTime="0.00" waitingCount="0" stopTime="0.00" timeLoss="-10.33" rerouteNo="1" devices="tripinfo_LX_47" vType="car7@LX_47" speedFactor="1.00" vaporized=""/>
    <tripinfo id="LX_54" depart="8.20" departLane="001_001_4_2" departPos="6.10" departSpeed="11.18" departDelay="0.20" arrival="46.30" arrivalLane="000_001_3_2" arrivalPos="200.00" arrivalSpeed="11.18" duration="38.10" routeLength="417.11" waitingTime="0.00" waitingCount="0" stopTime="0.00" timeLoss="-1.71" rerouteNo="1" devices="tripinfo_LX_54" vType="car6@LX_54" speedFactor="1.17" vaporized=""/>
    <tripinfo id="LX_65" depart="9.00" departLane="001_002_1_2" departPos="6.10" departSpeed="11.18" departDelay="0.00" arrival="46.60" arrivalLane="001_003_4_2" arrivalPos="200.00" arrivalSpeed="11.18" duration="37.60" routeLength="417.12" waitingTime="0.00" waitingCount="0" stopTime="0.00" timeLoss="-2.12" rerouteNo="1" devices="tripinfo_LX_65" vType="car6@LX_65" speedFactor="1.10" vaporized=""/>
    <tripinfo id="RX_68" depart="9.00" departLane="002_002_3_0" departPos="5.10" departSpeed="11.18" departDelay="0.00" arrival="47.60" arrivalLane="002_003_4_2" arrivalPos="200.00" arrivalSpeed="11.18" duration="38.60" routeLength="414.25" waitingTime="0.30" waitingCount="1" stopTime="0.00" timeLoss="-0.89" rerouteNo="1" devices="tripinfo_RX_68" vType="car5@RX_68" speedFactor="1.38" vaporized=""/>
    <tripinfo id="LX_67" depart="9.00" departLane="002_002_2_2" departPos="7.10" departSpeed="11.18" departDelay="0.00" arrival="47.70" arrivalLane="003_002_1_2" arrivalPos="200.00" arrivalSpeed="11.18" duration="38.70" routeLength="416.11" waitingTime="0.00" waitingCount="0" stopTime="0.00" timeLoss="-2.15" rerouteNo="1" devices="tripinfo_LX_67" vType="car7@LX_67" speedFactor="1.65" vaporized=""/>
    <tripinfo id="RX_88" depart="12.00" departLane="001_002_2_0" departPos="8.10" departSpeed="11.18" departDelay="0.00" arrival="48.20" arrivalLane="000_002_3_0" arrivalPos="200.00" arrivalSpeed="11.18" duration="36.20" routeLength="400.93" waitingTime="0.00" waitingCount="0" stopTime="0.00" timeLoss="-2.27" rerouteNo="1" devices="tripinfo_RX_88" vType="car8@RX_88" speedFactor="1.32" vaporized=""/>
    <tripinfo id="RX_95" depart="13.10" departLane="001_002_2_0" departPos="5.10" departSpeed="11.18" departDelay="0.10" arrival="49.40" arrivalLane="000_002_3_0" arrivalPos="200.00" arrivalSpeed="11.18" duration="36.30" routeLength="403.93" waitingTime="0.00" waitingCount="0" stopTime="0.00" timeLoss="-2.42" rerouteNo="1" devices="tripinfo_RX_95" vType="car5@RX_95" speedFactor="1.15" vaporized=""/>
    <tripinfo id="LX_62" depart="9.40" departLane="001_001_4_2" departPos="6.10" departSpeed="11.18" departDelay="0.40" arrival="49.60" arrivalLane="000_001_3_2" arrivalPos="200.00" arrivalSpeed="11.18" duration="40.20" routeLength="417.11" waitingTime="1.60" waitingCount="1" stopTime="0.00" timeLoss="-4795.16" rerouteNo="1" devices="tripinfo_LX_62" vType="car6@LX_62" speedFactor="1.92" vaporized=""/>
    <tripinfo id="LX_71" depart="10.00" departLane="002_001_3_2" departPos="7.10" departSpeed="11.18" departDelay="0.00" arrival="50.10" arrivalLane="002_000_2_2" arrivalPos="200.00" arrivalSpeed="11.18" duration="40.10" routeLength="416.12" waitingTime="1.10" waitingCount="1" stopTime="0.00" timeLoss="-5.66" rerouteNo="1" devices="tripinfo_LX_71" vType="car7@LX_71" speedFactor="1.73" vaporized=""/>
    <tripinfo id="RX_103" depart="14.60" departLane="001_002_2_0" departPos="9.10" departSpeed="11.18" departDelay="0.60" arrival="50.50" arrivalLane="000_002_3_0" arrivalPos="200.00" arrivalSpeed="11.18" duration="35.90" routeLength="399.93" waitingTime="0.00" waitingCount="0" stopTime="0.00" timeLoss="-2.55" rerouteNo="1" devices="tripinfo_RX_103" vType="car9@RX_103" speedFactor="1.05" vaporized=""/>
    <tripinfo id="RX_98" depart="14.00" departLane="001_001_1_0" departPos="8.10" departSpeed="11.18" departDelay="0.00" arrival="50.70" arrivalLane="001_000_2_0" arrivalPos="200.00" arrivalSpeed="11.18" duration="36.70" routeLength="400.93" waitingTime="0.00" waitingCount="0" stopTime="0.00" timeLoss="-2.16" rerouteNo="1" devices="tripinfo_RX_98" vType="car8@RX_98" speedFactor="1.82" vaporized=""/>
    <tripinfo id="LX_89" depart="12.00" departLane="002_002_2_2" departPos="6.10" departSpeed="11.18" departDelay="0.00" arrival="50.80" arrivalLane="003_002_1_2" arrivalPos="200.00" arrivalSpeed="11.18" duration="38.80" routeLength="417.11" waitingTime="0.00" waitingCount="0" stopTime="0.00" timeLoss="-2.15" rerouteNo="1" devices="tripinfo_LX_89" vType="car6@LX_89" speedFactor="1.08" vaporized=""/>
    <tripinfo id="RX_112" depart="15.00" departLane="002_002_3_0" departPos="7.10" departSpeed="11.18" departDelay="0.00" arrival="51.10" arrivalLane="002_003_4_0" arrivalPos="200.00" arrivalSpeed="11.18" duration="36.10" routeLength="401.93" waitingTime="0.00" waitingCount="0" stopTime="0.00" timeLoss="-2.29" rerouteNo="1" devices="tripinfo_RX_112" vType="car7@RX_112" speedFactor="1.30" vaporized=""/>
    <tripinfo id="RX_78" depart="11.50" departLane="002_001_4_0" departPos="9.10" departSpeed="11.18" departDelay="0.50" arrival="51.30" arrivalLane="003_001_1_0" arrivalPos="200.00" arrivalSpeed="11.18" duration="39.80" routeLength="399.93" waitingTime="2.60" waitingCount="1" stopTime="0.00" timeLoss="-3.67" rerouteNo="1" devices="tripinfo_RX_78" vType="car9@RX_78" speedFactor="1.09" vaporized=""/>
    <tripinfo id="LX_102" depart="14.00" departLane="001_002_1_2" departPos="6.10" departSpeed="11.18" departDelay="0.00" arrival="51.60" arrivalLane="001_003_4_2" arrivalPos="200.00" arrivalSpeed="11.18" duration="37.60" routeLength="417.12" waitingTime="0.00" waitingCount="0" stopTime="0.00" timeLoss="-2.12" rerouteNo="1" devices="tripinfo_LX_102" vType="car6@LX_102" speedFactor="1.00" vaporized=""/>
    <tripinfo id="RX_106" depart="15.40" departLane="001_001_1_0" departPos="8.10" departSpeed="11.18" departDelay="0.40" arrival="51.70" arrivalLane="001_000_2_0" arrivalPos="200.00" arrivalSpeed="11.18" duration="36.30" routeLength="400.93" waitingTime="0.00" waitingCount="0" stopTime="0.00" timeLoss="-2.20" rerouteNo="1" devices="tripinfo_RX_106" vType="car8@RX_106" speedFactor="1.65" vaporized=""/>
    <tripinfo id="RX_110" depart="15.80" departLane="001_002_2_0" departPos="6.10" departSpeed="11.18" departDelay="0.80" arrival="52.00" arrivalLane="000_002_3_0" arrivalPos="200.00" arrivalSpeed="11.18" duration="36.20" routeLength="402.93" waitingTime="0.00" waitingCount="0" stopTime="0.00" timeLoss="-2.13" rerouteNo="1" devices="tripinfo_RX_110" vType="car6@RX_110" speedFactor="1.52" vaporized=""/>
    <tripinfo id="RX_120" depart="16.10" departLane="002_002_3_0" departPos="5.10" departSpeed="11.18" departDelay="0.10" arrival="52.40" arrivalLane="002_003_4_0" arrivalPos="200.00" arrivalSpeed="11.18" duration="36.30" routeLength="403.93" waitingTime="0.00" waitingCount="0" stopTime="0.00" timeLoss="-2.12" rerouteNo="1" devices="tripinfo_RX_120" vType="car5@RX_120" speedFactor="1.65" vaporized=""/>
    <tripinfo id="RX_86" depart="12.60" departLane="002_001_4_0" departPos="5.10" departSpeed="11.18" departDelay="0.60" arrival="52.50" arrivalLane="003_001_1_0" arrivalPos="200.00" arrivalSpeed="11.18" duration="39.90" routeLength="403.93" waitingTime="2.10" waitingCount="1" stopTime="0.00" timeLoss="1.02" rerouteNo="1" devices="tripinfo_RX_86" vType="car5@RX_86" speedFactor="1.23" vaporized=""/>
    <tripinfo id="LX_81" depart="11.00" departLane="002_002_2_2" departPos="7.10" departSpeed="11.18" departDelay="0.00" arrival="52.60" arrivalLane="003_002_1_1" arrivalPos="200.00" arrivalSpeed="11.18" duration="41.60" routeLength="421.00" waitingTime="0.00" waitingCount="0" stopTime="0.00" timeLoss="-1.50" rerouteNo="1" devices="tripinfo_LX_81" vType="car7@LX_81" speedFactor="1.04" vaporized=""/>
    <tripinfo id="LX_84" depart="12.20" departLane="001_001_4_2" departPos="6.10" departSpeed="11.18" departDelay="0.20" arrival="52.70" arrivalLane="000_001_3_0" arrivalPos="200.00" arrivalSpeed="11.18" duration="40.50" routeLength="426.39" waitingTime="0.00" waitingCount="0" stopTime="0.00" timeLoss="-2.20" rerouteNo="1" devices="tripinfo_LX_84" vType="car6@LX_84" speedFactor="1.00" vaporized=""/>
    <tripinfo id="RX_113" depart="16.70" departLane="001_001_1_0" departPos="7.10" departSpeed="11.18" departDelay="0.70" arrival="52.80" arrivalLane="001_000_2_0" arrivalPos="200.00" arrivalSpeed="11.18" duration="36.10" routeLength="401.93" waitingTime="0.00" waitingCount="0" stopTime="0.00" timeLoss="-2.35" rerouteNo="1" devices="tripinfo_RX_113" vType="car7@RX_113" speedFactor="1.22" vaporized=""/>
    <tripinfo id="LX_85" depart="12.00" departLane="002_001_3_2" departPos="7.10" departSpeed="11.18" departDelay="0.00" arrival="53.20" arrivalLane="002_000_2_2" arrivalPos="200.00" arrivalSpeed="11.18" duration="41.20" routeLength="416.12" waitingTime="1.30" waitingCount="1" stopTime="0.00" timeLoss="-3951.69" rerouteNo="1" devices="tripinfo_LX_85" vType="car7@LX_85" speedFactor="1.31" vaporized=""/>
    <tripinfo id="RX_118" depart="17.30" departLane="001_002_2_0" departPos="9.10" departSpeed="11.18" departDelay="1.30" arrival="53.20" arrivalLane="000_002_3_0" arrivalPos="200.00" arrivalSpeed="11.18" duration="35.90" routeLength="399.93" waitingTime="0.00" waitingCount="0" stopTime="0.00" timeLoss="-2.28" rerouteNo="1" devices="tripinfo_RX_118" vType="car9@RX_118" speedFactor="1.31" vaporized=""/>
    <tripinfo id="RX_127" depart="17.40" departLane="002_002_3_0" departPos="7.10" departSpeed="11.18" departDelay="0.40" arrival="53.50" arrivalLane="002_003_4_0" arrivalPos="200.00" arrivalSpeed="11.18" duration="36.10" routeLength="401.93" waitingTime="0.00" waitingCount="0" stopTime="0.00" timeLoss="-2.12" rerouteNo="1" devices="tripinfo_RX_127" vType="car7@RX_127" speedFactor="1.56" vaporized=""/>
    <tripinfo id="RX_124" depart="17.00" departLane="002_001_4_0" departPos="8.10" departSpeed="11.18" departDelay="0.00" arrival="54.20" arrivalLane="003_001_1_0" arrivalPos="200.00" arrivalSpeed="11.18" duration="37.20" routeLength="400.93" waitingTime="0.00" waitingCount="0" stopTime="0.00" timeLoss="-0.93" rerouteNo="1" devices="tripinfo_RX_124" vType="car8@RX_124" speedFactor="1.82" vaporized=""/>
    <tripinfo id="LX_92" depart="13.20" departLane="002_001_3_2" departPos="6.10" departSpeed="11.18" departDelay="0.20" arrival="54.70" arrivalLane="002_000_2_0" arrivalPos="200.00" arrivalSpeed="11.18" duration="41.50" routeLength="426.39" waitingTime="0.00" waitingCount="0" stopTime="0.00" timeLoss="-2.38" rerouteNo="1" devices="tripinfo_LX_92" vType="car6@LX_92" speedFactor="1.24" vaporized=""/>
    <tripinfo id="LX_99" depart="14.00" departLane="001_001_4_2" departPos="8.10" departSpeed="11.18" departDelay="0.00" arrival="55.10" arrivalLane="000_001_3_2" arrivalPos="200.00" arrivalSpeed="11.18" duration="41.10" routeLength="415.11" waitingTime="0.00" waitingCount="0" stopTime="0.00" timeLoss="-2.36" rerouteNo="1" devices="tripinfo_LX_99" vType="car8@LX_99" speedFactor="1.02" vaporized=""/>
    <tripinfo id="RX_131" depart="18.10" departLane="002_001_4_0" departPos="5.10" departSpeed="11.18" departDelay="0.10" arrival="55.30" arrivalLane="003_001_1_0" arrivalPos="200.00" arrivalSpeed="11.18" duration="37.20" routeLength="403.93" waitingTime="0.00" waitingCount="0" stopTime="0.00" timeLoss="-1.33" rerouteNo="1" devices="tripinfo_RX_131" vType="car5@RX_131" speedFactor="1.68" vaporized=""/>
    <tripinfo id="RX_136" depart="19.10" departLane="001_001_1_0" departPos="5.10" departSpeed="11.18" departDelay="0.10" arrival="55.40" arrivalLane="001_000_2_0" arrivalPos="200.00" arrivalSpeed="11.18" duration="36.30" routeLength="403.93" waitingTime="0.00" waitingCount="0" stopTime="0.00" timeLoss="-2.25" rerouteNo="1" devices="tripinfo_RX_136" vType="car5@RX_136" speedFactor="1.35" vaporized=""/>
    <tripinfo id="LX_104" depart="14.00" departLane="002_002_2_2" departPos="7.10" departSpeed="11.18" departDelay="0.00" arrival="56.50" arrivalLane="003_002_1_1" arrivalPos="200.00" arrivalSpeed="11.18" duration="42.50" routeLength="421.00" waitingTime="0.00" waitingCount="0" stopTime="0.00" timeLoss="-2.44" rerouteNo="1" devices="tripinfo_LX_104" vType="car7@LX_104" speedFactor="1.71" vaporized=""/>
    <tripinfo id="SRX_0" depart="0.00" departLane="001_001_1_1" departPos="5.10" departSpeed="11.18" departDelay="0.00" arrival="57.20" arrivalLane="002_000_2_0" arrivalPos="200.00" arrivalSpeed="11.18" duration="57.20" routeLength="631.13" waitingTime="0.00" waitingCount="0" stopTime="0.00" timeLoss="-2.13" rerouteNo="2" devices="tripinfo_SRX_0" vType="car5@SRX_0" speedFactor="1.60" vaporized=""/>
    <tripinfo id="LX_100" depart="14.00" departLane="002_001_3_2" departPos="9.10" departSpeed="11.18" departDelay="0.00" arrival="57.30" arrivalLane="002_000_2_2" arrivalPos="200.00" arrivalSpeed="11.18" duration="43.30" routeLength="414.12" waitingTime="3.60" waitingCount="2" stopTime="0.00" timeLoss="-4787.79" rerouteNo="1" devices="tripinfo_LX_100" vType="car9@LX_100" speedFactor="1.16" vaporized=""/>
    <tripinfo id="LX_140" depart="19.00" departLane="001_002_1_2" departPos="9.10" departSpeed="11.18" departDelay="0.00" arrival="57.40" arrivalLane="001_003_4_2" arrivalPos="200.00" arrivalSpeed="11.18" duration="38.40" routeLength="414.12" waitingTime="0.00" waitingCount="0" stopTime="0.00" timeLoss="-2.15" rerouteNo="1" devices="tripinfo_LX_140" vType="car9@LX_140" speedFactor="1.07" vaporized=""/>
    <tripinfo id="RX_156" depart="22.00" departLane="001_001_1_0" departPos="8.10" departSpeed="11.18" departDelay="0.00" arrival="58.00" arrivalLane="001_000_2_0" arrivalPos="200.00" arrivalSpeed="11.18" duration="36.00" routeLength="400.93" waitingTime="0.00" waitingCount="0" stopTime="0.00" timeLoss="-2.58" rerouteNo="1" devices="tripinfo_RX_156" vType="car8@RX_156" speedFactor="1.02" vaporized=""/>
    <tripinfo id="RX_159" depart="22.00" departLane="002_001_4_0" departPos="7.10" departSpeed="11.18" departDelay="0.00" arrival="58.10" arrivalLane="003_001_1_0" arrivalPos="200.00" arrivalSpeed="11.18" duration="36.10" routeLength="401.93" waitingTime="0.00" waitingCount="0" stopTime="0.00" timeLoss="-2.12" rerouteNo="1" devices="tripinfo_RX_159" vType="car7@RX_159" speedFactor="1.95" vaporized=""/>
    <tripinfo id="LX_130" depart="18.00" departLane="002_001_3_2" departPos="5.10" departSpeed="11.18" departDelay="0.00" arrival="58.40" arrivalLane="002_000_2_2" arrivalPos="200.00" arrivalSpeed="11.18" duration="40.40" routeLength="418.12" waitingTime="2.10" waitingCount="1" stopTime="0.00" timeLoss="0.53" rerouteNo="1" devices="tripinfo_LX_130" vType="car5@LX_130" speedFactor="1.96" vaporized=""/>
    <tripinfo id="RRX_11" depart="1.00" departLane="001_002_1_0" departPos="5.10" departSpeed="11.18" departDelay="0.00" arrival="58.60" arrivalLane="000_001_3_0" arrivalPos="200.00" arrivalSpeed="11.18" duration="57.60" routeLength="612.96" waitingTime="0.00" waitingCount="0" stopTime="0.00" timeLoss="-2.96" rerouteNo="2" devices="tripinfo_RRX_11" vType="car5@RRX_11" speedFactor="1.83" vaporized=""/>
    <tripinfo id="RRX_20" depart="3.00" departLane="002_001_3_0" departPos="7.10" departSpeed="11.18" departDelay="0.00" arrival="58.90" arrivalLane="003_002_1_0" arrivalPos="200.00" arrivalSpeed="11.18" duration="55.90" routeLength="610.96" waitingTime="0.00" waitingCount="0" stopTime="0.00" timeLoss="-2.25" rerouteNo="2" devices="tripinfo_RRX_20" vType="car7@RRX_20" speedFactor="1.47" vaporized=""/>
    <tripinfo id="LX_122" depart="17.00" departLane="001_001_4_2" departPos="7.10" departSpeed="11.18" departDelay="0.00" arrival="58.90" arrivalLane="000_001_3_1" arrivalPos="200.00" arrivalSpeed="11.18" duration="41.90" routeLength="421.00" waitingTime="0.00" waitingCount="0" stopTime="0.00" timeLoss="-1.55" rerouteNo="1" devices="tripinfo_LX_122" vType="car7@LX_122" speedFactor="1.26" vaporized=""/>
    <tripinfo id="RX_172" depart="24.00" departLane="001_001_1_0" departPos="6.10" departSpeed="11.18" departDelay="0.00" arrival="60.20" arrivalLane="001_000_2_0" arrivalPos="200.00" arrivalSpeed="11.18" duration="36.20" routeLength="402.93" waitingTime="0.00" waitingCount="0" stopTime="0.00" timeLoss="-2.43" rerouteNo="1" devices="tripinfo_RX_172" vType="car6@RX_172" speedFactor="1.14" vaporized=""/>
    <tripinfo id="LX_137" depart="19.00" departLane="001_001_4_2" departPos="6.10" departSpeed="11.18" departDelay="0.00" arrival="60.90" arrivalLane="000_001_3_2" arrivalPos="200.00" arrivalSpeed="11.18" duration="41.90" routeLength="417.11" waitingTime="3.40" waitingCount="1" stopTime="0.00" timeLoss="-4182.22" rerouteNo="1" devices="tripinfo_LX_137" vType="car6@LX_137" speedFactor="1.67" vaporized=""/>
    <tripinfo id="SSX_5" depart="0.00" departLane="001_002_2_1" departPos="8.10" departSpeed="11.18" departDelay="0.00" arrival="61.80" arrivalLane="001_000_2_2" arrivalPos="200.00" arrivalSpeed="11.18" duration="61.80" routeLength="646.30" waitingTime="2.20" waitingCount="1" stopTime="0.00" timeLoss="-4046.86" rerouteNo="2" devices="tripinfo_SSX_5" vType="car8@SSX_5" speedFactor="1.46" vaporized=""/>
    <tripinfo id="RX_190" depart="26.00" departLane="002_001_4_0" departPos="8.10" departSpeed="11.18" departDelay="0.00" arrival="62.00" arrivalLane="003_001_1_0" arrivalPos="200.00" arrivalSpeed="11.18" duration="36.00" routeLength="400.93" waitingTime="0.00" waitingCount="0" stopTime="0.00" timeLoss="-2.12" rerouteNo="1" devices="tripinfo_RX_190" vType="car8@RX_190" speedFactor="1.96" vaporized=""/>
    <tripinfo id="RSX_44" depart="6.00" departLane="002_002_2_0" departPos="9.10" departSpeed="11.18" departDelay="0.00" arrival="62.20" arrivalLane="000_002_3_0" arrivalPos="200.00" arrivalSpeed="11.18" duration="56.20" routeLength="627.13" waitingTime="0.00" waitingCount="0" stopTime="0.00" timeLoss="-0.50" rerouteNo="2" devices="tripinfo_RSX_44" vType="car9@RSX_44" speedFactor="1.00" vaporized=""/>
    <tripinfo id="LX_150" depart="21.50" departLane="002_001_3_2" departPos="9.10" departSpeed="11.18" departDelay="0.50" arrival="62.40" arrivalLane="002_000_2_2" arrivalPos="200.00" arrivalSpeed="11.18" duration="40.90" routeLength="414.12" waitingTime="1.90" waitingCount="2" stopTime="0.00" timeLoss="-4382.60" rerouteNo="1" devices="tripinfo_LX_150" vType="car9@LX_150" speedFactor="1.64" vaporized=""/>
    <tripinfo id="LX_154" depart="21.00" departLane="002_002_2_2" departPos="6.10" departSpeed="11.18" departDelay="0.00" arrival="62.40" arrivalLane="003_002_1_2" arrivalPos="200.00" arrivalSpeed="11.18" duration="41.40" routeLength="417.11" waitingTime="1.50" waitingCount="2" stopTime="0.00" timeLoss="-1.41" rerouteNo="1" devices="tripinfo_LX_154" vType="car6@LX_154" speedFactor="1.00" vaporized=""/>
    <tripinfo id="SRX_31" depart="4.00" departLane="002_002_3_1" departPos="8.10" departSpeed="11.18" departDelay="0.00" arrival="62.80" arrivalLane="001_003_4_1" arrivalPos="200.00" arrivalSpeed="11.18" duration="58.80" routeLength="633.29" waitingTime="0.00" waitingCount="0" stopTime="0.00" timeLoss="-2.32" rerouteNo="2" devices="tripinfo_SRX_31" vType="car8@SRX_31" speedFactor="1.96" vaporized=""/>
    <tripinfo id="LLX_3" depart="0.00" departLane="002_001_4_2" departPos="6.10" departSpeed="11.18" departDelay="0.00" arrival="63.10" arrivalLane="001_000_2_2" arrivalPos="200.00" arrivalSpeed="11.18" duration="63.10" routeLength="640.33" waitingTime="4.40" waitingCount="1" stopTime="0.00" timeLoss="-4402.62" rerouteNo="2" devices="tripinfo_LLX_3" vType="car6@LLX_3" speedFactor="1.83" vaporized=""/>
    <tripinfo id="LX_141" depart="19.30" departLane="002_002_2_2" departPos="7.10" departSpeed="11.18" departDelay="0.30" arrival="63.70" arrivalLane="003_002_1_0" arrivalPos="200.00" arrivalSpeed="11.18" duration="44.40" routeLength="425.39" waitingTime="5.10" waitingCount="1" stopTime="0.00" timeLoss="-4297.71" rerouteNo="1" devices="tripinfo_LX_141" vType="car7@LX_141" speedFactor="1.87" vaporized=""/>
    <tripinfo id="RX_192" depart="26.00" departLane="001_002_2_0" departPos="7.10" departSpeed="11.18" departDelay="0.00" arrival="63.70" arrivalLane="000_002_3_0" arrivalPos="200.00" arrivalSpeed="11.18" duration="37.70" routeLength="401.93" waitingTime="0.00" waitingCount="0" stopTime="0.00" timeLoss="-2.22" rerouteNo="1" devices="tripinfo_RX_192" vType="car7@RX_192" speedFactor="1.95" vaporized=""/>
    <tripinfo id="SSX_6" depart="0.00" departLane="002_002_2_1" departPos="5.10" departSpeed="11.18" departDelay="0.00" arrival="63.80" arrivalLane="002_000_2_1" arrivalPos="200.00" arrivalSpeed="11.18" duration="63.80" routeLength="649.30" waitingTime="0.00" waitingCount="0" stopTime="0.00" timeLoss="-0.89" rerouteNo="2" devices="tripinfo_SSX_6" vType="car5@SSX_6" speedFactor="1.00" vaporized=""/>
    <tripinfo id="RSX_16" depart="2.20" departLane="001_002_1_0" departPos="6.10" departSpeed="11.18" departDelay="0.20" arrival="64.30" arrivalLane="001_000_2_0" arrivalPos="200.00" arrivalSpeed="11.18" duration="62.10" routeLength="630.13" waitingTime="0.00" waitingCount="0" stopTime="0.00" timeLoss="-0.42" rerouteNo="2" devices="tripinfo_RSX_16" vType="car6@RSX_16" speedFactor="1.00" vaporized=""/>
    <tripinfo id="LX_157" depart="22.00" departLane="001_001_4_2" departPos="9.10" departSpeed="11.18" departDelay="0.00" arrival="65.50" arrivalLane="000_001_3_2" arrivalPos="200.00" arrivalSpeed="11.18" duration="43.50" routeLength="414.11" waitingTime="4.50" waitingCount="2" stopTime="0.00" timeLoss="-4813.66" rerouteNo="1" devices="tripinfo_LX_157" vType="car9@LX_157" speedFactor="1.43" vaporized=""/>