<?xml version="1.0" encoding="UTF-8"?>

<!-- generated on 03/28/20 23:56:48 by Eclipse SUMO GUI Version 1.3.1
<configuration xmlns:xsi="http://www.w3.org/2001/XMLSchema-instance" xsi:noNamespaceSchemaLocation="http://sumo.dlr.de/xsd/sumoConfiguration.xsd">

    <input>
        <net-file value="data/lane2by2.net.xml"/>
        <route-files value="data/icacc+.rou.xml"/>
    </input>

    <output>
        <tripinfo-output value="tripinfo.xml"/>
    </output>

    <time>
        <begin value="0"/>
        <step-length value="0.1"/>
    </time>

    <processing>
        <collision.mingap-factor value="0"/>
    </processing>

    <report>
        <verbose value="true"/>
        <no-step-log value="true"/>
    </report>

    <traci_server>
        <remote-port value="3602"/>
    </traci_server>

    <gui_only>
        <start value="true"/>
        <tracker-interval value="0.1"/>
    </gui_only>

</configuration>
-->

<tripinfos xmlns:xsi="http://www.w3.org/2001/XMLSchema-instance" xsi:noNamespaceSchemaLocation="http://sumo.dlr.de/xsd/tripinfo_file.xsd">
    <tripinfo id="car_0" depart="0.00" departLane="001_001_4_2" departPos="9.10" departSpeed="11.18" departDelay="0.00" arrival="39.40" arrivalLane="000_001_3_2" arrivalPos="200.00" arrivalSpeed="10.00" duration="39.40" routeLength="414.11" waitingTime="0.00" waitingCount="0" stopTime="0.00" timeLoss="-0.01" rerouteNo="1" devices="tripinfo_car_0" vType="car9@car_0" speedFactor="1.06" vaporized=""/>
    <tripinfo id="car_4" depart="0.00" departLane="002_001_4_1" departPos="5.10" departSpeed="11.18" departDelay="0.00" arrival="39.40" arrivalLane="003_001_1_2" arrivalPos="200.00" arrivalSpeed="10.00" duration="39.40" routeLength="414.26" waitingTime="0.00" waitingCount="0" stopTime="0.00" timeLoss="-0.10" rerouteNo="1" devices="tripinfo_car_4" vType="car5@car_4" speedFactor="1.03" vaporized=""/>
    <tripinfo id="car_17" depart="2.00" departLane="002_002_3_1" departPos="8.10" departSpeed="11.18" departDelay="0.00" arrival="40.10" arrivalLane="002_003_4_0" arrivalPos="200.00" arrivalSpeed="10.00" duration="38.10" routeLength="400.93" waitingTime="0.00" waitingCount="0" stopTime="0.00" timeLoss="-0.58" rerouteNo="1" devices="tripinfo_car_17" vType="car8@car_17" speedFactor="0.94" vaporized=""/>
    <tripinfo id="car_14" depart="2.00" departLane="001_001_1_1" departPos="9.10" departSpeed="11.18" departDelay="0.00" arrival="41.70" arrivalLane="001_000_2_1" arrivalPos="200.00" arrivalSpeed="10.00" duration="39.70" routeLength="405.09" waitingTime="0.00" waitingCount="0" stopTime="0.00" timeLoss="-0.51" rerouteNo="1" devices="tripinfo_car_14" vType="car9@car_14" speedFactor="0.99" vaporized=""/>
    <tripinfo id="car_24" depart="3.00" departLane="002_002_2_2" departPos="9.10" departSpeed="11.18" departDelay="0.00" arrival="42.40" arrivalLane="003_002_1_2" arrivalPos="200.00" arrivalSpeed="10.00" duration="39.40" routeLength="414.11" waitingTime="0.00" waitingCount="0" stopTime="0.00" timeLoss="-0.49" rerouteNo="1" devices="tripinfo_car_24" vType="car9@car_24" speedFactor="0.83" vaporized=""/>
    <tripinfo id="car_22" depart="3.00" departLane="002_001_4_2" departPos="8.10" departSpeed="11.18" departDelay="0.00" arrival="42.60" arrivalLane="003_001_1_2" arrivalPos="200.00" arrivalSpeed="10.00" duration="39.60" routeLength="411.26" waitingTime="0.00" waitingCount="0" stopTime="0.00" timeLoss="-0.23" rerouteNo="1" devices="tripinfo_car_22" vType="car8@car_22" speedFactor="0.98" vaporized=""/>
    <tripinfo id="car_19" depart="3.60" departLane="001_001_1_1" departPos="6.10" departSpeed="11.18" departDelay="0.60" arrival="43.00" arrivalLane="001_000_2_1" arrivalPos="200.00" arrivalSpeed="10.00" duration="39.40" routeLength="408.09" waitingTime="0.00" waitingCount="0" stopTime="0.00" timeLoss="0.36" rerouteNo="1" devices="tripinfo_car_19" vType="car6@car_19" speedFactor="1.16" vaporized=""/>
    <tripinfo id="car_7" depart="1.00" departLane="001_001_1_1" departPos="6.10" departSpeed="11.18" departDelay="0.00" arrival="44.60" arrivalLane="001_000_2_0" arrivalPos="200.00" arrivalSpeed="10.00" duration="43.60" routeLength="402.93" waitingTime="0.00" waitingCount="0" stopTime="0.00" timeLoss="1.54" rerouteNo="1" devices="tripinfo_car_7" vType="car6@car_7" speedFactor="0.89" vaporized=""/>
    <tripinfo id="car_30" depart="4.00" departLane="002_002_2_0" departPos="7.10" departSpeed="11.18" departDelay="0.00" arrival="44.60" arrivalLane="003_002_1_0" arrivalPos="200.00" arrivalSpeed="10.00" duration="40.60" routeLength="425.39" waitingTime="0.00" waitingCount="0" stopTime="0.00" timeLoss="-0.01" rerouteNo="1" devices="tripinfo_car_30" vType="car7@car_30" speedFactor="1.18" vaporized=""/>
    <tripinfo id="car_50" depart="7.00" departLane="002_001_4_0" departPos="7.10" departSpeed="11.18" departDelay="0.00" arrival="45.20" arrivalLane="003_001_1_0" arrivalPos="200.00" arrivalSpeed="10.00" duration="38.20" routeLength="401.93" waitingTime="0.00" waitingCount="0" stopTime="0.00" timeLoss="-0.73" rerouteNo="1" devices="tripinfo_car_50" vType="car7@car_50" speedFactor="0.85" vaporized=""/>
    <tripinfo id="car_53" depart="7.80" departLane="002_002_3_2" departPos="9.10" departSpeed="11.18" departDelay="0.80" arrival="46.30" arrivalLane="002_003_4_1" arrivalPos="200.00" arrivalSpeed="10.00" duration="38.50" routeLength="405.09" waitingTime="0.00" waitingCount="0" stopTime="0.00" timeLoss="-0.22" rerouteNo="1" devices="tripinfo_car_53" vType="car9@car_53" speedFactor="1.10" vaporized=""/>
    <tripinfo id="car_32" depart="5.30" departLane="001_001_1_1" departPos="6.10" departSpeed="11.18" departDelay="0.30" arrival="46.70" arrivalLane="001_000_2_1" arrivalPos="200.00" arrivalSpeed="10.00" duration="41.40" routeLength="408.09" waitingTime="1.70" waitingCount="1" stopTime="0.00" timeLoss="-4180.45" rerouteNo="1" devices="tripinfo_car_32" vType="car6@car_32" speedFactor="1.01" vaporized=""/>
    <tripinfo id="car_62" depart="9.00" departLane="002_001_4_2" departPos="9.10" departSpeed="11.18" departDelay="0.00" arrival="47.00" arrivalLane="003_001_1_0" arrivalPos="200.00" arrivalSpeed="10.00" duration="38.00" routeLength="399.93" waitingTime="0.00" waitingCount="0" stopTime="0.00" timeLoss="-0.47" rerouteNo="1" devices="tripinfo_car_62" vType="car9@car_62" speedFactor="1.02" vaporized=""/>
    <tripinfo id="car_31" depart="5.00" departLane="001_001_4_1" departPos="5.10" departSpeed="11.18" departDelay="0.00" arrival="47.80" arrivalLane="000_001_3_1" arrivalPos="200.00" arrivalSpeed="10.00" duration="42.80" routeLength="423.00" waitingTime="0.00" waitingCount="0" stopTime="0.00" timeLoss="-0.12" rerouteNo="1" devices="tripinfo_car_31" vType="car5@car_31" speedFactor="1.15" vaporized=""/>
    <tripinfo id="car_40" depart="6.00" departLane="001_001_1_0" departPos="6.10" departSpeed="11.18" departDelay="0.00" arrival="48.30" arrivalLane="001_000_2_0" arrivalPos="200.00" arrivalSpeed="10.00" duration="42.30" routeLength="402.93" waitingTime="1.80" waitingCount="1" stopTime="0.00" timeLoss="-4196.16" rerouteNo="1" devices="tripinfo_car_40" vType="car6@car_40" speedFactor="1.03" vaporized=""/>
    <tripinfo id="car_67" depart="10.00" departLane="001_002_2_0" departPos="9.10" departSpeed="11.18" departDelay="0.00" arrival="48.30" arrivalLane="000_002_3_0" arrivalPos="200.00" arrivalSpeed="10.00" duration="38.30" routeLength="399.93" waitingTime="0.00" waitingCount="0" stopTime="0.00" timeLoss="-0.42" rerouteNo="1" devices="tripinfo_car_67" vType="car9@car_67" speedFactor="0.91" vaporized=""/>
    <tripinfo id="car_70" depart="10.00" departLane="002_002_3_0" departPos="6.10" departSpeed="11.18" departDelay="0.00" arrival="48.30" arrivalLane="002_003_4_0" arrivalPos="200.00" arrivalSpeed="10.00" duration="38.30" routeLength="402.93" waitingTime="0.00" waitingCount="0" stopTime="0.00" timeLoss="-0.46" rerouteNo="1" devices="tripinfo_car_70" vType="car6@car_70" speedFactor="1.02" vaporized=""/>
    <tripinfo id="car_47" depart="7.50" departLane="001_001_4_0" departPos="5.10" departSpeed="11.18" departDelay="0.50" arrival="49.90" arrivalLane="000_001_3_2" arrivalPos="200.00" arrivalSpeed="10.00" duration="42.40" routeLength="418.11" waitingTime="0.00" waitingCount="0" stopTime="0.00" timeLoss="-0.50" rerouteNo="1" devices="tripinfo_car_47" vType="car5@car_47" speedFactor="0.90" vaporized=""/>
    <tripinfo id="car_80" depart="12.00" departLane="002_001_4_0" departPos="9.10" departSpeed="11.18" departDelay="0.00" arrival="50.00" arrivalLane="003_001_1_0" arrivalPos="200.00" arrivalSpeed="10.00" duration="38.00" routeLength="399.93" waitingTime="0.00" waitingCount="0" stopTime="0.00" timeLoss="-0.45" rerouteNo="1" devices="tripinfo_car_80" vType="car9@car_80" speedFactor="1.03" vaporized=""/>
    <tripinfo id="car_52" depart="8.60" departLane="002_002_2_0" departPos="8.10" departSpeed="11.18" departDelay="1.60" arrival="50.10" arrivalLane="003_002_1_1" arrivalPos="200.00" arrivalSpeed="10.00" duration="41.50" routeLength="420.00" waitingTime="0.00" waitingCount="0" stopTime="0.00" timeLoss="-0.06" rerouteNo="1" devices="tripinfo_car_52" vType="car8@car_52" speedFactor="1.02" vaporized=""/>
    <tripinfo id="car_42" depart="6.00" departLane="002_001_3_1" departPos="8.10" departSpeed="11.18" departDelay="0.00" arrival="50.40" arrivalLane="002_000_2_1" arrivalPos="200.00" arrivalSpeed="10.00" duration="44.40" routeLength="420.00" waitingTime="3.50" waitingCount="1" stopTime="0.00" timeLoss="-4405.62" rerouteNo="1" devices="tripinfo_car_42" vType="car8@car_42" speedFactor="1.09" vaporized=""/>
    <tripinfo id="car_64" depart="9.00" departLane="002_002_3_0" departPos="6.10" departSpeed="11.18" departDelay="0.00" arrival="50.40" arrivalLane="002_003_4_1" arrivalPos="200.00" arrivalSpeed="10.00" duration="41.40" routeLength="408.09" waitingTime="0.00" waitingCount="0" stopTime="0.00" timeLoss="0.44" rerouteNo="1" devices="tripinfo_car_64" vType="car6@car_64" speedFactor="0.94" vaporized=""/>
    <tripinfo id="car_58" depart="9.00" departLane="001_001_4_1" departPos="7.10" departSpeed="11.18" departDelay="0.00" arrival="50.90" arrivalLane="000_001_3_2" arrivalPos="200.00" arrivalSpeed="10.00" duration="41.90" routeLength="416.11" waitingTime="0.00" waitingCount="0" stopTime="0.00" timeLoss="2.17" rerouteNo="1" devices="tripinfo_car_58" vType="car7@car_58" speedFactor="1.02" vaporized=""/>
    <tripinfo id="car_85" depart="13.00" departLane="001_001_1_1" departPos="6.10" departSpeed="11.18" departDelay="0.00" arrival="51.80" arrivalLane="001_000_2_1" arrivalPos="200.00" arrivalSpeed="10.00" duration="38.80" routeLength="408.09" waitingTime="0.00" waitingCount="0" stopTime="0.00" timeLoss="-0.40" rerouteNo="1" devices="tripinfo_car_85" vType="car6@car_85" speedFactor="0.98" vaporized=""/>
    <tripinfo id="car_34" depart="7.80" departLane="002_001_3_0" departPos="5.10" departSpeed="11.18" departDelay="2.80" arrival="52.10" arrivalLane="002_000_2_2" arrivalPos="200.00" arrivalSpeed="10.00" duration="44.30" routeLength="418.12" waitingTime="3.60" waitingCount="1" stopTime="0.00" timeLoss="-4058.73" rerouteNo="1" devices="tripinfo_car_34" vType="car5@car_34" speedFactor="0.99" vaporized=""/>
    <tripinfo id="car_60" depart="9.50" departLane="001_002_2_0" departPos="5.10" departSpeed="11.18" departDelay="0.50" arrival="52.20" arrivalLane="000_002_3_2" arrivalPos="200.00" arrivalSpeed="10.00" duration="42.70" routeLength="414.26" waitingTime="1.20" waitingCount="1" stopTime="0.00" timeLoss="-4832.61" rerouteNo="1" devices="tripinfo_car_60" vType="car5@car_60" speedFactor="1.08" vaporized=""/>
    <tripinfo id="car_88" depart="13.70" departLane="002_001_4_0" departPos="7.10" departSpeed="11.18" departDelay="0.70" arrival="52.40" arrivalLane="003_001_1_1" arrivalPos="200.00" arrivalSpeed="10.00" duration="38.70" routeLength="407.09" waitingTime="0.00" waitingCount="0" stopTime="0.00" timeLoss="-0.35" rerouteNo="1" devices="tripinfo_car_88" vType="car7@car_88" speedFactor="1.01" vaporized=""/>
    <tripinfo id="car_103" depart="15.00" departLane="002_002_3_0" departPos="8.10" departSpeed="11.18" departDelay="0.00" arrival="53.10" arrivalLane="002_003_4_0" arrivalPos="200.00" arrivalSpeed="10.00" duration="38.10" routeLength="400.93" waitingTime="0.00" waitingCount="0" stopTime="0.00" timeLoss="-0.56" rerouteNo="1" devices="tripinfo_car_103" vType="car8@car_103" speedFactor="0.95" vaporized=""/>
    <tripinfo id="car_78" depart="14.20" departLane="001_001_1_2" departPos="6.10" departSpeed="11.18" departDelay="2.20" arrival="53.40" arrivalLane="001_000_2_0" arrivalPos="200.00" arrivalSpeed="10.00" duration="39.20" routeLength="402.93" waitingTime="0.00" waitingCount="0" stopTime="0.00" timeLoss="-0.14" rerouteNo="1" devices="tripinfo_car_78" vType="car6@car_78" speedFactor="1.01" vaporized=""/>
    <tripinfo id="car_72" depart="11.70" departLane="001_002_2_0" departPos="7.10" departSpeed="11.18" departDelay="0.70" arrival="53.70" arrivalLane="000_002_3_1" arrivalPos="200.00" arrivalSpeed="10.00" duration="42.00" routeLength="407.09" waitingTime="1.60" waitingCount="1" stopTime="0.00" timeLoss="-4608.67" rerouteNo="1" devices="tripinfo_car_72" vType="car7@car_72" speedFactor="0.94" vaporized=""/>
    <tripinfo id="car_92" depart="14.00" departLane="001_002_2_0" departPos="7.10" departSpeed="11.18" departDelay="0.00" arrival="54.80" arrivalLane="000_002_3_1" arrivalPos="200.00" arrivalSpeed="10.00" duration="40.80" routeLength="407.09" waitingTime="1.10" waitingCount="1" stopTime="0.00" timeLoss="1.35" rerouteNo="1" devices="tripinfo_car_92" vType="car7@car_92" speedFactor="0.83" vaporized=""/>
    <tripinfo id="car_68" depart="10.00" departLane="002_001_3_0" departPos="5.10" departSpeed="11.18" departDelay="0.00" arrival="55.10" arrivalLane="002_000_2_0" arrivalPos="200.00" arrivalSpeed="10.00" duration="45.10" routeLength="427.39" waitingTime="3.50" waitingCount="1" stopTime="0.00" timeLoss="-4058.73" rerouteNo="1" devices="tripinfo_car_68" vType="car5@car_68" speedFactor="1.04" vaporized=""/>
    <tripinfo id="car_95" depart="14.00" departLane="002_002_3_0" departPos="6.10" departSpeed="11.18" departDelay="0.00" arrival="55.40" arrivalLane="002_003_4_1" arrivalPos="200.00" arrivalSpeed="10.00" duration="41.40" routeLength="408.09" waitingTime="0.00" waitingCount="0" stopTime="0.00" timeLoss="0.31" rerouteNo="1" devices="tripinfo_car_95" vType="car6@car_95" speedFactor="1.06" vaporized=""/>
    <tripinfo id="car_73" depart="11.00" departLane="002_001_3_2" departPos="5.10" departSpeed="11.18" departDelay="0.00" arrival="56.30" arrivalLane="002_000_2_2" arrivalPos="200.00" arrivalSpeed="10.00" duration="45.30" routeLength="418.12" waitingTime="3.40" waitingCount="2" stopTime="0.00" timeLoss="-4857.21" rerouteNo="1" devices="tripinfo_car_73" vType="car5@car_73" speedFactor="1.06" vaporized=""/>
    <tripinfo id="car_81" depart="14.40" departLane="001_002_1_1" departPos="9.10" departSpeed="11.18" departDelay="2.40" arrival="57.20" arrivalLane="001_003_4_2" arrivalPos="200.00" arrivalSpeed="10.00" duration="42.80" routeLength="414.12" waitingTime="0.90" waitingCount="1" stopTime="0.00" timeLoss="3.20" rerouteNo="1" devices="tripinfo_car_81" vType="car9@car_81" speedFactor="1.00" vaporized=""/>
    <tripinfo id="car_90" depart="19.10" departLane="002_002_3_1" departPos="6.10" departSpeed="11.18" departDelay="6.10" arrival="57.90" arrivalLane="002_003_4_1" arrivalPos="200.00" arrivalSpeed="10.00" duration="38.80" routeLength="408.09" waitingTime="0.00" waitingCount="0" stopTime="0.00" timeLoss="-0.33" rerouteNo="1" devices="tripinfo_car_90" vType="car6@car_90" speedFactor="1.02" vaporized=""/>
    <tripinfo id="car_79" depart="12.00" departLane="002_001_3_0" departPos="8.10" departSpeed="11.18" departDelay="0.00" arrival="58.20" arrivalLane="002_000_2_1" arrivalPos="200.00" arrivalSpeed="10.00" duration="46.20" routeLength="420.00" waitingTime="4.10" waitingCount="2" stopTime="0.00" timeLoss="-3958.24" rerouteNo="1" devices="tripinfo_car_79" vType="car8@car_79" speedFactor="1.09" vaporized=""/>
    <tripinfo id="car_133" depart="20.50" departLane="002_002_3_2" departPos="5.10" departSpeed="11.18" departDelay="0.50" arrival="59.50" arrivalLane="002_003_4_1" arrivalPos="200.00" arrivalSpeed="10.00" duration="39.00" routeLength="409.09" waitingTime="0.00" waitingCount="0" stopTime="0.00" timeLoss="-0.17" rerouteNo="1" devices="tripinfo_car_133" vType="car5@car_133" speedFactor="1.04" vaporized=""/>
    <tripinfo id="car_93" depart="14.50" departLane="002_001_3_0" departPos="5.10" departSpeed="11.18" departDelay="0.50" arrival="60.00" arrivalLane="002_000_2_2" arrivalPos="200.00" arrivalSpeed="10.00" duration="45.50" routeLength="418.12" waitingTime="3.90" waitingCount="2" stopTime="0.00" timeLoss="-4836.59" rerouteNo="1" devices="tripinfo_car_93" vType="car5@car_93" speedFactor="0.92" vaporized=""/>
    <tripinfo id="car_132" depart="20.00" departLane="002_002_2_0" departPos="7.10" departSpeed="11.18" departDelay="0.00" arrival="62.40" arrivalLane="003_002_1_1" arrivalPos="200.00" arrivalSpeed="10.00" duration="42.40" routeLength="421.00" waitingTime="0.70" waitingCount="1" stopTime="0.00" timeLoss="1.62" rerouteNo="1" devices="tripinfo_car_132" vType="car7@car_132" speedFactor="0.96" vaporized=""/>
    <tripinfo id="car_108" depart="18.30" departLane="002_001_3_0" departPos="8.10" departSpeed="11.18" departDelay="1.30" arrival="63.00" arrivalLane="002_000_2_2" arrivalPos="200.00" arrivalSpeed="10.00" duration="44.70" routeLength="415.12" waitingTime="3.10" waitingCount="2" stopTime="0.00" timeLoss="-4258.90" rerouteNo="1" devices="tripinfo_car_108" vType="car8@car_108" speedFactor="1.06" vaporized=""/>
    <tripinfo id="car_5" depart="0.00" departLane="001_002_1_2" departPos="6.10" departSpeed="11.18" departDelay="0.00" arrival="63.50" arrivalLane="002_003_4_2" arrivalPos="200.00" arrivalSpeed="10.00" duration="63.50" routeLength="644.32" waitingTime="2.00" waitingCount="1" stopTime="0.00" timeLoss="-4773.33" rerouteNo="2" devices="tripinfo_car_5" vType="car6@car_5" speedFactor="0.83" vaporized=""/>
    <tripinfo id="car_9" depart="1.00" departLane="002_001_3_0" departPos="6.10" departSpeed="11.18" departDelay="0.00" arrival="64.20" arrivalLane="003_002_1_1" arrivalPos="200.00" arrivalSpeed="10.00" duration="63.20" routeLength="622.28" waitingTime="0.00" waitingCount="0" stopTime="0.00" timeLoss="-2.94" rerouteNo="2" devices="tripinfo_car_9" vType="car6@car_9" speedFactor="0.86" vaporized=""/>
    <tripinfo id="car_122" depart="20.10" departLane="002_001_3_2" departPos="9.10" departSpeed="11.18" departDelay="1.10" arrival="64.30" arrivalLane="002_000_2_2" arrivalPos="200.00" arrivalSpeed="10.00" duration="44.20" routeLength="414.12" waitingTime="2.60" waitingCount="2" stopTime="0.00" timeLoss="4.59" rerouteNo="1" devices="tripinfo_car_122" vType="car9@car_122" speedFactor="1.03" vaporized=""/>
    <tripinfo id="car_8" depart="1.00" departLane="001_002_2_1" departPos="6.10" departSpeed="11.18" departDelay="0.00" arrival="64.60" arrivalLane="002_003_4_2" arrivalPos="200.00" arrivalSpeed="10.00" duration="63.60" routeLength="640.33" waitingTime="1.90" waitingCount="2" stopTime="0.00" timeLoss="1.63" rerouteNo="2" devices="tripinfo_car_8" vType="car6@car_8" speedFactor="0.94" vaporized=""/>
    <tripinfo id="car_134" depart="21.00" departLane="001_001_1_2" departPos="6.10" departSpeed="11.18" departDelay="0.00" arrival="64.80" arrivalLane="001_000_2_1" arrivalPos="200.00" arrivalSpeed="10.00" duration="43.80" routeLength="408.09" waitingTime="4.10" waitingCount="1" stopTime="0.00" timeLoss="-4180.13" rerouteNo="1" devices="tripinfo_car_134" vType="car6@car_134" speedFactor="1.23" vaporized=""/>
    <tripinfo id="car_131" depart="21.20" departLane="001_002_1_2" departPos="8.10" departSpeed="11.18" departDelay="1.20" arrival="65.30" arrivalLane="001_003_4_2" arrivalPos="200.00" arrivalSpeed="10.00" duration="44.10" routeLength="415.12" waitingTime="3.10" waitingCount="1" stopTime="0.00" timeLoss="4.41" rerouteNo="1" devices="tripinfo_car_131" vType="car8@car_131" speedFactor="1.07" vaporized=""/>
    <tripinfo id="car_2" depart="0.00" departLane="001_002_2_0" departPos="8.10" departSpeed="11.18" departDelay="0.00" arrival="66.40" arrivalLane="003_002_1_0" arrivalPos="200.00" arrivalSpeed="10.00" duration="66.40" routeLength="651.59" waitingTime="0.00" waitingCount="0" stopTime="0.00" timeLoss="-1.53" rerouteNo="2" devices="tripinfo_car_2" vType="car8@car_2" speedFactor="1.01" vaporized=""/>
    <tripinfo id="car_26" depart="4.80" departLane="001_001_4_1" departPos="9.10" departSpeed="11.18" departDelay="0.80" arrival="66.50" arrivalLane="000_002_3_2" arrivalPos="200.00" arrivalSpeed="10.00" duration="61.70" routeLength="641.31" waitingTime="0.70" waitingCount="1" stopTime="0.00" timeLoss="-4854.03" rerouteNo="2" devices="tripinfo_car_26" vType="car9@car_26" speedFactor="0.92" vaporized=""/>
    <tripinfo id="car_136" depart="21.00" departLane="002_001_4_1" departPos="8.10" departSpeed="11.18" departDelay="0.00" arrival="67.10" arrivalLane="003_001_1_1" arrivalPos="200.00" arrivalSpeed="10.00" duration="46.10" routeLength="406.09" waitingTime="5.30" waitingCount="2" stopTime="0.00" timeLoss="7.27" rerouteNo="1" devices="tripinfo_car_136" vType="car8@car_136" speedFactor="1.12" vaporized=""/>
    <tripinfo id="car_152" depart="24.00" departLane="001_001_1_0" departPos="7.10" departSpeed="11.18" departDelay="0.00" arrival="69.00" arrivalLane="001_000_2_0" arrivalPos="200.00" arrivalSpeed="10.00" duration="45.00" routeLength="401.93" waitingTime="4.80" waitingCount="2" stopTime="0.00" timeLoss="6.31" rerouteNo="1" devices="tripinfo_car_152" vType="car7@car_152" speedFactor="1.07" vaporized=""/>
    <tripinfo id="car_12" depart="1.00" departLane="002_002_2_2" departPos="5.10" departSpeed="11.18" departDelay="0.00" arrival="69.30" arrivalLane="003_001_1_2" arrivalPos="200.00" arrivalSpeed="10.00" duration="68.30" routeLength="645.31" waitingTime="7.00" waitingCount="1" stopTime="0.00" timeLoss="-4285.64" rerouteNo="2" devices="tripinfo_car_12" vType="car5@car_12" speedFactor="1.05" vaporized=""/>
    <tripinfo id="car_142" depart="22.00" departLane="002_002_2_1" departPos="5.10" departSpeed="11.18" departDelay="0.00" arrival="69.40" arrivalLane="003_002_1_2" arrivalPos="200.00" arrivalSpeed="10.00" duration="47.40" routeLength="418.11" waitingTime="6.70" waitingCount="1" stopTime="0.00" timeLoss="-4058.86" rerouteNo="1" devices="tripinfo_car_142" vType="car5@car_142" speedFactor="0.94" vaporized=""/>
    <tripinfo id="car_156" depart="24.70" departLane="001_002_1_1" departPos="7.10" departSpeed="11.18" departDelay="0.70" arrival="69.40" arrivalLane="001_003_4_2" arrivalPos="200.00" arrivalSpeed="10.00" duration="44.70" routeLength="416.12" waitingTime="2.80" waitingCount="2" stopTime="0.00" timeLoss="-4530.81" rerouteNo="1" devices="tripinfo_car_156" vType="car7@car_156" speedFactor="1.18" vaporized=""/>
    <tripinfo id="car_3" depart="0.00" departLane="002_001_3_1" departPos="9.10" departSpeed="11.18" departDelay="0.00" arrival="69.50" arrivalLane="000_001_3_1" arrivalPos="200.00" arrivalSpeed="10.00" duration="69.50" routeLength="645.30" waitingTime="8.10" waitingCount="1" stopTime="0.00" timeLoss="-4853.85" rerouteNo="2" devices="tripinfo_car_3" vType="car9@car_3" speedFactor="1.08" vaporized=""/>
    <tripinfo id="car_15" depart="2.60" departLane="002_001_3_1" departPos="6.10" departSpeed="11.18" departDelay="0.60" arrival="70.40" arrivalLane="002_003_4_2" arrivalPos="200.00" arrivalSpeed="10.00" duration="67.80" routeLength="640.45" waitingTime="4.20" waitingCount="2" stopTime="0.00" timeLoss="-4652.47" rerouteNo="2" devices="tripinfo_car_15" vType="car6@car_15" speedFactor="0.93" vaporized=""/>
    <tripinfo id="car_155" depart="24.00" departLane="002_001_4_2" departPos="6.10" departSpeed="11.18" departDelay="0.00" arrival="70.80" arrivalLane="003_001_1_2" arrivalPos="200.00" arrivalSpeed="10.00" duration="46.80" routeLength="413.26" waitingTime="5.20" waitingCount="2" stopTime="0.00" timeLoss="7.32" rerouteNo="1" devices="tripinfo_car_155" vType="car6@car_155" speedFactor="1.12" vaporized=""/>
    <tripinfo id="car_29" depart="4.00" departLane="001_002_1_1" departPos="9.10" departSpeed="11.18" departDelay="0.00" arrival="71.40" arrivalLane="000_001_3_2" arrivalPos="200.00" arrivalSpeed="10.00" duration="67.40" routeLength="624.45" waitingTime="5.50" waitingCount="2" stopTime="0.00" timeLoss="-4601.53" rerouteNo="2" devices="tripinfo_car_29" vType="car9@car_29" speedFactor="0.93" vaporized=""/>
    <tripinfo id="car_20" depart="3.00" departLane="001_002_2_1" departPos="8.10" departSpeed="11.18" departDelay="0.00" arrival="71.60" arrivalLane="003_002_1_2" arrivalPos="200.00" arrivalSpeed="10.00" duration="68.60" routeLength="642.31" waitingTime="6.40" waitingCount="2" stopTime="0.00" timeLoss="-4520.90" rerouteNo="2" devices="tripinfo_car_20" vType="car8@car_20" speedFactor="1.02" vaporized=""/>
    <tripinfo id="car_37" depart="5.00" departLane="002_002_2_2" departPos="9.10" departSpeed="11.18" departDelay="0.00" arrival="71.70" arrivalLane="000_002_3_1" arrivalPos="200.00" arrivalSpeed="10.00" duration="66.70" routeLength="632.29" waitingTime="5.80" waitingCount="1" stopTime="0.00" timeLoss="-4301.86" rerouteNo="2" devices="tripinfo_car_37" vType="car9@car_37" speedFactor="1.18" vaporized=""/>
    <tripinfo id="car_140" depart="22.00" departLane="002_001_4_0" departPos="6.10" departSpeed="11.18" departDelay="0.00" arrival="72.40" arrivalLane="003_001_1_1" arrivalPos="200.00" arrivalSpeed="10.00" duration="50.40" routeLength="408.09" waitingTime="7.20" waitingCount="2" stopTime="0.00" timeLoss="-4044.09" rerouteNo="1" devices="tripinfo_car_140" vType="car6@car_140" speedFactor="1.11" vaporized=""/>
    <tripinfo id="car_13" depart="2.00" departLane="001_001_4_2" departPos="6.10" departSpeed="11.18" departDelay="0.00" arrival="72.60" arrivalLane="001_003_4_1" arrivalPos="200.00" arrivalSpeed="10.00" duration="70.60" routeLength="648.30" waitingTime="0.00" waitingCount="0" stopTime="0.00" timeLoss="-9.20" rerouteNo="2" devices="tripinfo_car_13" vType="car6@car_13" speedFactor="1.12" vaporized=""/>
    <tripinfo id="car_159" depart="25.00" departLane="001_001_1_1" departPos="9.10" departSpeed="11.18" departDelay="0.00" arrival="72.80" arrivalLane="001_000_2_1" arrivalPos="200.00" arrivalSpeed="10.00" duration="47.80" routeLength="405.09" waitingTime="7.10" waitingCount="2" stopTime="0.00" timeLoss="9.02" rerouteNo="1" devices="tripinfo_car_159" vType="car9@car_159" speedFactor="1.14" vaporized=""/>
    <tripinfo id="car_168" depart="26.50" departLane="001_002_1_2" departPos="9.10" departSpeed="11.18" departDelay="0.50" arrival="73.00" arrivalLane="001_003_4_2" arrivalPos="200.00" arrivalSpeed="10.00" duration="46.50" routeLength="414.12" waitingTime="3.60" waitingCount="2" stopTime="0.00" timeLoss="-4779.52" rerouteNo="1" devices="tripinfo_car_168" vType="car9@car_168" speedFactor="0.98" vaporized=""/>
    <tripinfo id="car_148" depart="27.30" departLane="002_001_4_1" departPos="7.10" departSpeed="11.18" departDelay="4.30" arrival="73.50" arrivalLane="003_001_1_1" arrivalPos="200.00" arrivalSpeed="10.00" duration="46.20" routeLength="407.09" waitingTime="5.40" waitingCount="2" stopTime="0.00" timeLoss="6.87" rerouteNo="1" devices="tripinfo_car_148" vType="car7@car_148" speedFactor="0.97" vaporized=""/>
    <tripinfo id="car_16" depart="2.00" departLane="002_002_2_0" departPos="7.10" departSpeed="11.18" departDelay="0.00" arrival="73.90" arrivalLane="002_000_2_0" arrivalPos="200.00" arrivalSpeed="10.00" duration="71.90" routeLength="647.30" waitingTime="0.00" waitingCount="0" stopTime="0.00" timeLoss="-3.92" rerouteNo="2" devices="tripinfo_car_16" vType="car7@car_16" speedFactor="0.88" vaporized=""/>
    <tripinfo id="car_151" depart="25.50" departLane="001_001_4_0" departPos="9.10" departSpeed="11.18" departDelay="1.50" arrival="74.70" arrivalLane="000_001_3_2" arrivalPos="200.00" arrivalSpeed="10.00" duration="49.20" routeLength="414.11" waitingTime="6.70" waitingCount="3" stopTime="0.00" timeLoss="-4847.36" rerouteNo="1" devices="tripinfo_car_151" vType="car9@car_151" speedFactor="1.00" vaporized=""/>
    <tripinfo id="car_25" depart="3.80" departLane="002_002_3_0" departPos="9.10" departSpeed="11.18" departDelay="0.80" arrival="75.00" arrivalLane="001_003_4_2" arrivalPos="200.00" arrivalSpeed="10.00" duration="71.20" routeLength="637.45" waitingTime="0.00" waitingCount="0" stopTime="0.00" timeLoss="-6.74" rerouteNo="2" devices="tripinfo_car_25" vType="car9@car_25" speedFactor="0.87" vaporized=""/>
    <tripinfo id="car_23" depart="3.00" departLane="001_002_1_0" departPos="6.10" departSpeed="11.18" departDelay="0.00" arrival="75.50" arrivalLane="003_002_1_1" arrivalPos="200.00" arrivalSpeed="10.00" duration="72.50" routeLength="648.30" waitingTime="10.30" waitingCount="1" stopTime="0.00" timeLoss="-4203.36" rerouteNo="2" devices="tripinfo_car_23" vType="car6@car_23" speedFactor="0.89" vaporized=""/>
    <tripinfo id="car_84" depart="13.00" departLane="001_001_4_2" departPos="9.10" departSpeed="11.18" departDelay="0.00" arrival="75.50" arrivalLane="002_000_2_0" arrivalPos="200.00" arrivalSpeed="10.00" duration="62.50" routeLength="619.29" waitingTime="0.00" waitingCount="0" stopTime="0.00" timeLoss="-1.97" rerouteNo="2" devices="tripinfo_car_84" vType="car9@car_84" speedFactor="1.15" vaporized=""/>
    <tripinfo id="car_157" depart="24.00" departLane="002_002_2_0" departPos="6.10" departSpeed="11.18" departDelay="0.00" arrival="75.50" arrivalLane="003_002_1_2" arrivalPos="200.00" arrivalSpeed="10.00" duration="51.50" routeLength="417.11" waitingTime="7.90" waitingCount="2" stopTime="0.00" timeLoss="-4842.66" rerouteNo="1" devices="tripinfo_car_157" vType="car6@car_157" speedFactor="1.08" vaporized=""/>