<?xml version="1.0" encoding="UTF-8"?>

<!-- generated on 04/28/21 03:58:12 by Eclipse SUMO GUI Version 1.8.0
<configuration xmlns:xsi="http://www.w3.org/2001/XMLSchema-instance" xsi:noNamespaceSchemaLocation="http://sumo.dlr.de/xsd/sumoConfiguration.xsd">

    <input>
        <net-file value="data/lane3.net.xml"/>
        <route-files value="data/icacc+.rou.xml"/>
        <additional-files value="data/icacc+.det.xml"/>
    </input>

    <output>
        <tripinfo-output value="tripinfo.xml"/>
    </output>

    <time>
        <begin value="0"/>
        <step-length value="0.1"/>
    </time>

    <processing>
        <collision.mingap-factor value="0"/>
        <time-to-teleport value="-1"/>
        <lanechange.duration value="0.5"/>
    </processing>

    <report>
        <verbose value="true"/>
        <no-step-log value="true"/>
    </report>

    <traci_server>
        <remote-port value="12479"/>
    </traci_server>

    <gui_only>
        <start value="true"/>
        <tracker-interval value="0.1"/>
    </gui_only>

</configuration>
-->

<tripinfos xmlns:xsi="http://www.w3.org/2001/XMLSchema-instance" xsi:noNamespaceSchemaLocation="http://sumo.dlr.de/xsd/tripinfo_file.xsd">
    <tripinfo id="R_2" depart="0.00" departLane="4_2" departPos="8.10" departSpeed="11.18" departDelay="0.00" arrival="35.60" arrivalLane="-3_0" arrivalPos="200.00" arrivalSpeed="11.18" duration="35.60" routeLength="397.06" waitingTime="0.00" waitingCount="0" stopTime="0.00" timeLoss="-2.59" rerouteNo="0" devices="tripinfo_R_2" vType="car8@R_2" speedFactor="1.01" vaporized=""/>
    <tripinfo id="R_0" depart="0.00" departLane="1_0" departPos="7.10" departSpeed="11.18" departDelay="0.00" arrival="35.70" arrivalLane="-4_0" arrivalPos="200.00" arrivalSpeed="11.18" duration="35.70" routeLength="398.06" waitingTime="0.00" waitingCount="0" stopTime="0.00" timeLoss="-2.55" rerouteNo="0" devices="tripinfo_R_0" vType="car7@R_0" speedFactor="1.06" vaporized=""/>
    <tripinfo id="R_4" depart="1.00" departLane="2_1" departPos="8.10" departSpeed="11.18" departDelay="0.00" arrival="36.60" arrivalLane="-1_0" arrivalPos="200.00" arrivalSpeed="11.18" duration="35.60" routeLength="397.06" waitingTime="0.00" waitingCount="0" stopTime="0.00" timeLoss="-2.58" rerouteNo="0" devices="tripinfo_R_4" vType="car8@R_4" speedFactor="1.03" vaporized=""/>
    <tripinfo id="S_1" depart="0.00" departLane="3_2" departPos="6.10" departSpeed="11.18" departDelay="0.00" arrival="37.30" arrivalLane="-1_2" arrivalPos="200.00" arrivalSpeed="11.18" duration="37.30" routeLength="416.30" waitingTime="0.00" waitingCount="0" stopTime="0.00" timeLoss="0.00" rerouteNo="0" devices="tripinfo_S_1" vType="car6@S_1" speedFactor="0.94" vaporized=""/>
    <tripinfo id="L_3" depart="1.00" departLane="1_1" departPos="9.10" departSpeed="11.18" departDelay="0.00" arrival="38.50" arrivalLane="-2_1" arrivalPos="200.00" arrivalSpeed="11.18" duration="37.50" routeLength="415.34" waitingTime="0.00" waitingCount="0" stopTime="0.00" timeLoss="-2.12" rerouteNo="0" devices="tripinfo_L_3" vType="car9@L_3" speedFactor="1.08" vaporized=""/>
    <tripinfo id="R_11" depart="3.00" departLane="2_0" departPos="8.10" departSpeed="11.18" departDelay="0.00" arrival="38.60" arrivalLane="-1_0" arrivalPos="200.00" arrivalSpeed="11.18" duration="35.60" routeLength="397.06" waitingTime="0.00" waitingCount="0" stopTime="0.00" timeLoss="-2.58" rerouteNo="0" devices="tripinfo_R_11" vType="car8@R_11" speedFactor="1.03" vaporized=""/>
    <tripinfo id="S_5" depart="1.00" departLane="4_1" departPos="6.10" departSpeed="11.18" departDelay="0.00" arrival="38.80" arrivalLane="-2_0" arrivalPos="200.00" arrivalSpeed="11.18" duration="37.80" routeLength="416.30" waitingTime="0.00" waitingCount="0" stopTime="0.00" timeLoss="0.56" rerouteNo="0" devices="tripinfo_S_5" vType="car6@S_5" speedFactor="0.83" vaporized=""/>
    <tripinfo id="R_10" depart="3.90" departLane="1_1" departPos="8.10" departSpeed="11.18" departDelay="0.90" arrival="39.50" arrivalLane="-4_0" arrivalPos="200.00" arrivalSpeed="11.18" duration="35.60" routeLength="397.06" waitingTime="0.00" waitingCount="0" stopTime="0.00" timeLoss="-2.52" rerouteNo="0" devices="tripinfo_R_10" vType="car8@R_10" speedFactor="1.09" vaporized=""/>
    <tripinfo id="L_9" depart="2.00" departLane="4_2" departPos="6.10" departSpeed="11.18" departDelay="0.00" arrival="39.60" arrivalLane="-1_2" arrivalPos="200.00" arrivalSpeed="11.18" duration="37.60" routeLength="413.45" waitingTime="0.00" waitingCount="0" stopTime="0.00" timeLoss="-2.64" rerouteNo="0" devices="tripinfo_L_9" vType="car6@L_9" speedFactor="0.86" vaporized=""/>
    <tripinfo id="S_8" depart="2.00" departLane="3_1" departPos="9.10" departSpeed="11.18" departDelay="0.00" arrival="41.30" arrivalLane="-1_1" arrivalPos="200.00" arrivalSpeed="11.18" duration="39.30" routeLength="413.30" waitingTime="0.00" waitingCount="0" stopTime="0.00" timeLoss="-0.21" rerouteNo="0" devices="tripinfo_S_8" vType="car9@S_8" speedFactor="0.94" vaporized=""/>
    <tripinfo id="L_13" depart="5.00" departLane="3_2" departPos="7.10" departSpeed="11.18" departDelay="0.00" arrival="42.20" arrivalLane="-4_2" arrivalPos="200.00" arrivalSpeed="11.18" duration="37.20" routeLength="412.45" waitingTime="0.00" waitingCount="0" stopTime="0.00" timeLoss="-2.12" rerouteNo="0" devices="tripinfo_L_13" vType="car7@L_13" speedFactor="1.12" vaporized=""/>
    <tripinfo id="L_7" depart="2.50" departLane="2_0" departPos="9.10" departSpeed="11.18" departDelay="0.50" arrival="43.00" arrivalLane="-3_2" arrivalPos="200.00" arrivalSpeed="11.18" duration="40.50" routeLength="410.45" waitingTime="2.60" waitingCount="1" stopTime="0.00" timeLoss="-4529.01" rerouteNo="0" devices="tripinfo_L_7" vType="car9@L_7" speedFactor="0.89" vaporized=""/>
    <tripinfo id="L_6" depart="2.00" departLane="1_0" departPos="9.10" departSpeed="11.18" departDelay="0.00" arrival="43.70" arrivalLane="-2_2" arrivalPos="200.00" arrivalSpeed="11.18" duration="41.70" routeLength="410.45" waitingTime="3.00" waitingCount="1" stopTime="0.00" timeLoss="-4599.96" rerouteNo="0" devices="tripinfo_L_6" vType="car9@L_6" speedFactor="1.05" vaporized=""/>
    <tripinfo id="S_12" depart="5.10" departLane="1_0" departPos="6.10" departSpeed="11.18" departDelay="0.10" arrival="44.90" arrivalLane="-3_2" arrivalPos="200.00" arrivalSpeed="11.18" duration="39.80" routeLength="416.30" waitingTime="1.30" waitingCount="1" stopTime="0.00" timeLoss="2.48" rerouteNo="0" devices="tripinfo_S_12" vType="car6@S_12" speedFactor="1.05" vaporized=""/>
    <tripinfo id="L_14" depart="5.00" departLane="4_2" departPos="5.10" departSpeed="11.18" departDelay="0.00" arrival="45.50" arrivalLane="-1_2" arrivalPos="200.00" arrivalSpeed="11.18" duration="40.50" routeLength="414.45" waitingTime="0.00" waitingCount="0" stopTime="0.00" timeLoss="-2.91" rerouteNo="0" devices="tripinfo_L_14" vType="car5@L_14" speedFactor="0.99" vaporized=""/>
    <tripinfo id="L_16" depart="6.20" departLane="3_2" departPos="6.10" departSpeed="11.18" departDelay="0.20" arrival="47.00" arrivalLane="-4_2" arrivalPos="200.00" arrivalSpeed="11.18" duration="40.80" routeLength="413.45" waitingTime="0.00" waitingCount="0" stopTime="0.00" timeLoss="-3.77" rerouteNo="0" devices="tripinfo_L_16" vType="car6@L_16" speedFactor="0.88" vaporized=""/>
    <tripinfo id="R_22" depart="9.10" departLane="2_2" departPos="5.10" departSpeed="11.18" departDelay="0.10" arrival="47.00" arrivalLane="-1_0" arrivalPos="200.00" arrivalSpeed="11.18" duration="37.90" routeLength="400.06" waitingTime="0.00" waitingCount="0" stopTime="0.00" timeLoss="-2.39" rerouteNo="0" devices="tripinfo_R_22" vType="car5@R_22" speedFactor="0.98" vaporized=""/>
    <tripinfo id="L_15" depart="6.00" departLane="2_2" departPos="6.10" departSpeed="11.18" departDelay="0.00" arrival="47.40" arrivalLane="-3_2" arrivalPos="200.00" arrivalSpeed="11.18" duration="41.40" routeLength="413.45" waitingTime="2.30" waitingCount="1" stopTime="0.00" timeLoss="-4736.76" rerouteNo="0" devices="tripinfo_L_15" vType="car6@L_15" speedFactor="0.93" vaporized=""/>
    <tripinfo id="S_18" depart="7.00" departLane="2_1" departPos="7.10" departSpeed="11.18" departDelay="0.00" arrival="47.60" arrivalLane="-4_0" arrivalPos="200.00" arrivalSpeed="11.18" duration="40.60" routeLength="415.30" waitingTime="0.00" waitingCount="0" stopTime="0.00" timeLoss="-0.35" rerouteNo="0" devices="tripinfo_S_18" vType="car7@S_18" speedFactor="0.94" vaporized=""/>
    <tripinfo id="L_21" depart="8.00" departLane="2_2" departPos="7.10" departSpeed="11.18" departDelay="0.00" arrival="48.30" arrivalLane="-3_2" arrivalPos="200.00" arrivalSpeed="11.18" duration="40.30" routeLength="412.45" waitingTime="2.20" waitingCount="1" stopTime="0.00" timeLoss="0.80" rerouteNo="0" devices="tripinfo_L_21" vType="car7@L_21" speedFactor="1.01" vaporized=""/>
    <tripinfo id="S_24" depart="9.00" departLane="4_2" departPos="7.10" departSpeed="11.18" departDelay="0.00" arrival="49.40" arrivalLane="-2_2" arrivalPos="200.00" arrivalSpeed="11.18" duration="40.40" routeLength="415.30" waitingTime="2.30" waitingCount="1" stopTime="0.00" timeLoss="-3912.13" rerouteNo="0" devices="tripinfo_S_24" vType="car7@S_24" speedFactor="0.83" vaporized=""/>
    <tripinfo id="R_36" depart="14.00" departLane="1_1" departPos="5.10" departSpeed="11.18" departDelay="0.00" arrival="49.90" arrivalLane="-4_0" arrivalPos="200.00" arrivalSpeed="11.18" duration="35.90" routeLength="400.06" waitingTime="0.00" waitingCount="0" stopTime="0.00" timeLoss="-2.63" rerouteNo="0" devices="tripinfo_R_36" vType="car5@R_36" speedFactor="0.97" vaporized=""/>
    <tripinfo id="S_20" depart="8.00" departLane="1_0" departPos="8.10" departSpeed="11.18" departDelay="0.00" arrival="50.10" arrivalLane="-3_1" arrivalPos="200.00" arrivalSpeed="11.18" duration="42.10" routeLength="414.30" waitingTime="0.00" waitingCount="0" stopTime="0.00" timeLoss="-0.75" rerouteNo="0" devices="tripinfo_S_20" vType="car8@S_20" speedFactor="1.02" vaporized=""/>
    <tripinfo id="S_33" depart="13.00" departLane="2_0" departPos="7.10" departSpeed="11.18" departDelay="0.00" arrival="50.60" arrivalLane="-4_1" arrivalPos="200.00" arrivalSpeed="11.18" duration="37.60" routeLength="415.30" waitingTime="0.00" waitingCount="0" stopTime="0.00" timeLoss="-0.00" rerouteNo="0" devices="tripinfo_S_33" vType="car7@S_33" speedFactor="1.17" vaporized=""/>
    <tripinfo id="S_23" depart="9.00" departLane="3_1" departPos="7.10" departSpeed="11.18" departDelay="0.00" arrival="51.20" arrivalLane="-1_1" arrivalPos="200.00" arrivalSpeed="11.18" duration="42.20" routeLength="415.30" waitingTime="0.00" waitingCount="0" stopTime="0.00" timeLoss="-0.70" rerouteNo="0" devices="tripinfo_S_23" vType="car7@S_23" speedFactor="0.89" vaporized=""/>
    <tripinfo id="L_19" depart="7.70" departLane="3_2" departPos="9.10" departSpeed="11.18" departDelay="0.70" arrival="51.30" arrivalLane="-4_2" arrivalPos="200.00" arrivalSpeed="11.18" duration="43.60" routeLength="410.45" waitingTime="2.50" waitingCount="1" stopTime="0.00" timeLoss="-4684.37" rerouteNo="0" devices="tripinfo_L_19" vType="car9@L_19" speedFactor="1.16" vaporized=""/>
    <tripinfo id="L_28" depart="11.00" departLane="3_0" departPos="6.10" departSpeed="11.18" departDelay="0.00" arrival="52.40" arrivalLane="-4_2" arrivalPos="200.00" arrivalSpeed="11.18" duration="41.40" routeLength="413.45" waitingTime="2.60" waitingCount="1" stopTime="0.00" timeLoss="2.04" rerouteNo="0" devices="tripinfo_L_28" vType="car6@L_28" speedFactor="1.13" vaporized=""/>
    <tripinfo id="L_27" depart="11.00" departLane="2_0" departPos="7.10" departSpeed="11.18" departDelay="0.00" arrival="52.80" arrivalLane="-3_2" arrivalPos="200.00" arrivalSpeed="11.18" duration="41.80" routeLength="412.45" waitingTime="2.80" waitingCount="1" stopTime="0.00" timeLoss="-4159.53" rerouteNo="0" devices="tripinfo_L_27" vType="car7@L_27" speedFactor="0.95" vaporized=""/>
    <tripinfo id="S_31" depart="12.30" departLane="3_1" departPos="7.10" departSpeed="11.18" departDelay="0.30" arrival="53.60" arrivalLane="-1_0" arrivalPos="200.00" arrivalSpeed="11.18" duration="41.30" routeLength="415.30" waitingTime="0.00" waitingCount="0" stopTime="0.00" timeLoss="-1.21" rerouteNo="0" devices="tripinfo_S_31" vType="car7@S_31" speedFactor="1.15" vaporized=""/>
    <tripinfo id="S_40" depart="15.00" departLane="3_0" departPos="5.10" departSpeed="11.18" departDelay="0.00" arrival="54.50" arrivalLane="-1_0" arrivalPos="200.00" arrivalSpeed="11.18" duration="39.50" routeLength="417.30" waitingTime="0.00" waitingCount="0" stopTime="0.00" timeLoss="2.12" rerouteNo="0" devices="tripinfo_S_40" vType="car5@S_40" speedFactor="1.03" vaporized=""/>
    <tripinfo id="R_47" depart="19.60" departLane="4_2" departPos="8.10" departSpeed="11.18" departDelay="2.60" arrival="55.40" arrivalLane="-3_0" arrivalPos="200.00" arrivalSpeed="11.18" duration="35.80" routeLength="397.06" waitingTime="0.00" waitingCount="0" stopTime="0.00" timeLoss="-2.51" rerouteNo="0" devices="tripinfo_R_47" vType="car8@R_47" speedFactor="0.90" vaporized=""/>
    <tripinfo id="R_53" depart="20.20" departLane="2_2" departPos="6.10" departSpeed="11.18" departDelay="0.20" arrival="56.00" arrivalLane="-1_0" arrivalPos="200.00" arrivalSpeed="11.18" duration="35.80" routeLength="399.06" waitingTime="0.00" waitingCount="0" stopTime="0.00" timeLoss="-2.52" rerouteNo="0" devices="tripinfo_R_53" vType="car6@R_53" speedFactor="1.10" vaporized=""/>
    <tripinfo id="L_29" depart="11.00" departLane="4_1" departPos="5.10" departSpeed="11.18" departDelay="0.00" arrival="56.20" arrivalLane="-1_2" arrivalPos="200.00" arrivalSpeed="11.18" duration="45.20" routeLength="414.45" waitingTime="5.90" waitingCount="2" stopTime="0.00" timeLoss="-3992.64" rerouteNo="0" devices="tripinfo_L_29" vType="car5@L_29" speedFactor="0.93" vaporized=""/>
    <tripinfo id="S_35" depart="13.00" departLane="4_1" departPos="6.10" departSpeed="11.18" departDelay="0.00" arrival="56.80" arrivalLane="-2_1" arrivalPos="200.00" arrivalSpeed="11.18" duration="43.80" routeLength="416.30" waitingTime="0.00" waitingCount="0" stopTime="0.00" timeLoss="-0.93" rerouteNo="0" devices="tripinfo_S_35" vType="car6@S_35" speedFactor="1.02" vaporized=""/>
    <tripinfo id="S_42" depart="16.00" departLane="1_0" departPos="6.10" departSpeed="11.18" departDelay="0.00" arrival="57.30" arrivalLane="-3_1" arrivalPos="200.00" arrivalSpeed="11.18" duration="41.30" routeLength="416.30" waitingTime="2.10" waitingCount="1" stopTime="0.00" timeLoss="-4222.03" rerouteNo="0" devices="tripinfo_S_42" vType="car6@S_42" speedFactor="1.09" vaporized=""/>
    <tripinfo id="R_57" depart="22.00" departLane="2_2" departPos="7.10" departSpeed="11.18" departDelay="0.00" arrival="57.70" arrivalLane="-1_0" arrivalPos="200.00" arrivalSpeed="11.18" duration="35.70" routeLength="398.06" waitingTime="0.00" waitingCount="0" stopTime="0.00" timeLoss="-2.48" rerouteNo="0" devices="tripinfo_R_57" vType="car7@R_57" speedFactor="1.14" vaporized=""/>
    <tripinfo id="R_59" depart="22.00" departLane="4_1" departPos="7.10" departSpeed="11.18" departDelay="0.00" arrival="57.70" arrivalLane="-3_0" arrivalPos="200.00" arrivalSpeed="11.18" duration="35.70" routeLength="398.06" waitingTime="0.00" waitingCount="0" stopTime="0.00" timeLoss="-2.63" rerouteNo="0" devices="tripinfo_R_59" vType="car7@R_59" speedFactor="0.97" vaporized=""/>
    <tripinfo id="R_58" depart="22.00" departLane="3_0" departPos="6.10" departSpeed="11.18" departDelay="0.00" arrival="57.80" arrivalLane="-2_0" arrivalPos="200.00" arrivalSpeed="11.18" duration="35.80" routeLength="399.06" waitingTime="0.00" waitingCount="0" stopTime="0.00" timeLoss="-2.58" rerouteNo="0" devices="tripinfo_R_58" vType="car6@R_58" speedFactor="1.02" vaporized=""/>
    <tripinfo id="S_30" depart="12.00" departLane="2_0" departPos="6.10" departSpeed="11.18" departDelay="0.00" arrival="58.40" arrivalLane="-4_2" arrivalPos="200.00" arrivalSpeed="11.18" duration="46.40" routeLength="416.30" waitingTime="6.40" waitingCount="2" stopTime="0.00" timeLoss="-4724.75" rerouteNo="0" devices="tripinfo_S_30" vType="car6@S_30" speedFactor="1.18" vaporized=""/>
    <tripinfo id="R_65" depart="25.00" departLane="2_0" departPos="9.10" departSpeed="11.18" departDelay="0.00" arrival="60.50" arrivalLane="-1_0" arrivalPos="200.00" arrivalSpeed="11.18" duration="35.50" routeLength="396.06" waitingTime="0.00" waitingCount="0" stopTime="0.00" timeLoss="-2.85" rerouteNo="0" devices="tripinfo_R_65" vType="car9@R_65" speedFactor="0.88" vaporized=""/>
    <tripinfo id="L_38" depart="14.00" departLane="4_0" departPos="6.10" departSpeed="11.18" departDelay="0.00" arrival="60.70" arrivalLane="-1_2" arrivalPos="200.00" arrivalSpeed="11.18" duration="46.70" routeLength="413.45" waitingTime="6.40" waitingCount="2" stopTime="0.00" timeLoss="-4933.56" rerouteNo="0" devices="tripinfo_L_38" vType="car6@L_38" speedFactor="1.10" vaporized=""/>
    <tripinfo id="L_25" depart="10.00" departLane="3_0" departPos="8.10" departSpeed="11.18" departDelay="0.00" arrival="61.00" arrivalLane="-4_2" arrivalPos="200.00" arrivalSpeed="11.18" duration="51.00" routeLength="411.45" waitingTime="7.80" waitingCount="2" stopTime="0.00" timeLoss="-4168.34" rerouteNo="0" devices="tripinfo_L_25" vType="car8@L_25" speedFactor="0.87" vaporized=""/>
    <tripinfo id="S_45" depart="17.00" departLane="2_1" departPos="5.10" departSpeed="11.18" departDelay="0.00" arrival="62.40" arrivalLane="-4_1" arrivalPos="200.00" arrivalSpeed="11.18" duration="45.40" routeLength="417.30" waitingTime="0.00" waitingCount="0" stopTime="0.00" timeLoss="-0.71" rerouteNo="0" devices="tripinfo_S_45" vType="car5@S_45" speedFactor="1.09" vaporized=""/>
    <tripinfo id="L_37" depart="14.40" departLane="2_1" departPos="8.10" departSpeed="11.18" departDelay="0.40" arrival="62.70" arrivalLane="-3_2" arrivalPos="200.00" arrivalSpeed="11.18" duration="48.30" routeLength="411.45" waitingTime="7.90" waitingCount="3" stopTime="0.00" timeLoss="-4772.62" rerouteNo="0" devices="tripinfo_L_37" vType="car8@L_37" speedFactor="1.18" vaporized=""/>
    <tripinfo id="S_43" depart="16.00" departLane="4_1" departPos="9.10" departSpeed="11.18" departDelay="0.00" arrival="63.70" arrivalLane="-2_2" arrivalPos="200.00" arrivalSpeed="11.18" duration="47.70" routeLength="413.30" waitingTime="6.80" waitingCount="3" stopTime="0.00" timeLoss="-4742.54" rerouteNo="0" devices="tripinfo_S_43" vType="car9@S_43" speedFactor="1.04" vaporized=""/>
    <tripinfo id="R_68" depart="26.00" departLane="2_1" departPos="8.10" departSpeed="11.18" departDelay="0.00" arrival="63.90" arrivalLane="-1_0" arrivalPos="200.00" arrivalSpeed="11.18" duration="37.90" routeLength="397.06" waitingTime="0.00" waitingCount="0" stopTime="0.00" timeLoss="-0.29" rerouteNo="0" devices="tripinfo_R_68" vType="car8@R_68" speedFactor="1.04" vaporized=""/>
    <tripinfo id="R_52" depart="20.00" departLane="1_2" departPos="5.10" departSpeed="11.18" departDelay="0.00" arrival="64.30" arrivalLane="-4_0" arrivalPos="200.00" arrivalSpeed="11.18" duration="44.30" routeLength="400.06" waitingTime="6.70" waitingCount="1" stopTime="0.00" timeLoss="3.32" rerouteNo="0" devices="tripinfo_R_52" vType="car5@R_52" speedFactor="1.02" vaporized=""/>
    <tripinfo id="S_48" depart="18.50" departLane="1_2" departPos="8.10" departSpeed="11.18" departDelay="0.50" arrival="64.80" arrivalLane="-3_0" arrivalPos="200.00" arrivalSpeed="11.18" duration="46.30" routeLength="414.30" waitingTime="8.30" waitingCount="1" stopTime="0.00" timeLoss="-4451.18" rerouteNo="0" devices="tripinfo_S_48" vType="car8@S_48" speedFactor="0.88" vaporized=""/>
    <tripinfo id="S_17" depart="7.00" departLane="1_2" departPos="9.10" departSpeed="11.18" departDelay="0.00" arrival="64.90" arrivalLane="-3_2" arrivalPos="200.00" arrivalSpeed="11.18" duration="57.90" routeLength="413.30" waitingTime="18.60" waitingCount="2" stopTime="0.00" timeLoss="-4722.00" rerouteNo="0" devices="tripinfo_S_17" vType="car9@S_17" speedFactor="0.94" vaporized=""/>
    <tripinfo id="R_50" depart="19.40" departLane="1_1" departPos="8.10" departSpeed="11.18" departDelay="0.40" arrival="65.00" arrivalLane="-4_0" arrivalPos="200.00" arrivalSpeed="11.18" duration="45.60" routeLength="397.06" waitingTime="5.00" waitingCount="1" stopTime="0.00" timeLoss="7.15" rerouteNo="0" devices="tripinfo_R_50" vType="car8@R_50" speedFactor="0.85" vaporized=""/>
    <tripinfo id="R_70" depart="29.70" departLane="1_1" departPos="7.10" departSpeed="11.18" departDelay="2.70" arrival="66.10" arrivalLane="-4_0" arrivalPos="200.00" arrivalSpeed="11.18" duration="36.40" routeLength="398.06" waitingTime="0.00" waitingCount="0" stopTime="0.00" timeLoss="-2.07" rerouteNo="0" devices="tripinfo_R_70" vType="car7@R_70" speedFactor="1.02" vaporized=""/>
    <tripinfo id="L_26" depart="11.00" departLane="1_0" departPos="7.10" departSpeed="11.18" departDelay="0.00" arrival="66.70" arrivalLane="-2_2" arrivalPos="200.00" arrivalSpeed="11.18" duration="55.70" routeLength="412.45" waitingTime="16.70" waitingCount="1" stopTime="0.00" timeLoss="11.94" rerouteNo="0" devices="tripinfo_L_26" vType="car7@L_26" speedFactor="0.92" vaporized=""/>
    <tripinfo id="L_34" depart="13.60" departLane="3_0" departPos="7.10" departSpeed="11.18" departDelay="0.60" arrival="67.20" arrivalLane="-4_2" arrivalPos="200.00" arrivalSpeed="11.18" duration="53.60" routeLength="412.45" waitingTime="11.30" waitingCount="2" stopTime="0.00" timeLoss="-4605.98" rerouteNo="0" devices="tripinfo_L_34" vType="car7@L_34" speedFactor="0.99" vaporized=""/>
    <tripinfo id="R_77" depart="30.00" departLane="1_2" departPos="5.10" departSpeed="11.18" departDelay="0.00" arrival="67.70" arrivalLane="-4_0" arrivalPos="200.00" arrivalSpeed="11.18" duration="37.70" routeLength="400.06" waitingTime="0.00" waitingCount="0" stopTime="0.00" timeLoss="-0.87" rerouteNo="0" devices="tripinfo_R_77" vType="car5@R_77" speedFactor="0.98" vaporized=""/>
    <tripinfo id="S_46" depart="18.80" departLane="3_2" departPos="6.10" departSpeed="11.18" departDelay="1.80" arrival="68.20" arrivalLane="-1_2" arrivalPos="200.00" arrivalSpeed="11.18" duration="49.40" routeLength="416.30" waitingTime="10.10" waitingCount="2" stopTime="0.00" timeLoss="12.07" rerouteNo="0" devices="tripinfo_S_46" vType="car6@S_46" speedFactor="1.00" vaporized=""/>
    <tripinfo id="R_78" depart="30.10" departLane="3_0" departPos="5.10" departSpeed="11.18" departDelay="0.10" arrival="68.50" arrivalLane="-2_0" arrivalPos="200.00" arrivalSpeed="11.18" duration="38.40" routeLength="400.06" waitingTime="1.70" waitingCount="1" stopTime="0.00" timeLoss="-0.12" rerouteNo="0" devices="tripinfo_R_78" vType="car5@R_78" speedFactor="1.01" vaporized=""/>
    <tripinfo id="S_81" depart="31.00" departLane="3_2" departPos="7.10" departSpeed="11.18" departDelay="0.00" arrival="68.50" arrivalLane="-1_1" arrivalPos="200.00" arrivalSpeed="11.18" duration="37.50" routeLength="415.30" waitingTime="0.00" waitingCount="0" stopTime="0.00" timeLoss="-0.00" rerouteNo="0" devices="tripinfo_S_81" vType="car7@S_81" speedFactor="1.00" vaporized=""/>
    <tripinfo id="R_67" depart="33.10" departLane="4_2" departPos="9.10" departSpeed="11.18" departDelay="8.10" arrival="68.60" arrivalLane="-3_0" arrivalPos="200.00" arrivalSpeed="11.18" duration="35.50" routeLength="396.06" waitingTime="0.00" waitingCount="0" stopTime="0.00" timeLoss="-2.80" rerouteNo="0" devices="tripinfo_R_67" vType="car9@R_67" speedFactor="0.91" vaporized=""/>
    <tripinfo id="S_75" depart="29.00" departLane="3_1" departPos="7.10" departSpeed="11.18" departDelay="0.00" arrival="69.10" arrivalLane="-1_0" arrivalPos="200.00" arrivalSpeed="11.18" duration="40.10" routeLength="415.30" waitingTime="2.00" waitingCount="1" stopTime="0.00" timeLoss="-4295.58" rerouteNo="0" devices="tripinfo_S_75" vType="car7@S_75" speedFactor="0.98" vaporized=""/>
    <tripinfo id="R_84" depart="33.50" departLane="1_1" departPos="5.10" departSpeed="11.18" departDelay="0.50" arrival="69.40" arrivalLane="-4_0" arrivalPos="200.00" arrivalSpeed="11.18" duration="35.90" routeLength="400.06" waitingTime="0.00" waitingCount="0" stopTime="0.00" timeLoss="-2.48" rerouteNo="0" devices="tripinfo_R_84" vType="car5@R_84" speedFactor="1.15" vaporized=""/>
    <tripinfo id="S_41" depart="18.10" departLane="4_2" departPos="9.10" departSpeed="11.18" departDelay="3.10" arrival="69.60" arrivalLane="-2_2" arrivalPos="200.00" arrivalSpeed="11.18" duration="51.50" routeLength="413.30" waitingTime="9.90" waitingCount="4" stopTime="0.00" timeLoss="-4609.57" rerouteNo="0" devices="tripinfo_S_41" vType="car9@S_41" speedFactor="0.96" vaporized=""/>
    <tripinfo id="R_85" depart="33.00" departLane="2_0" departPos="8.10" departSpeed="11.18" departDelay="0.00" arrival="70.40" arrivalLane="-1_0" arrivalPos="200.00" arrivalSpeed="11.18" duration="37.40" routeLength="397.06" waitingTime="0.00" waitingCount="0" stopTime="0.00" timeLoss="-3.18" rerouteNo="0" devices="tripinfo_R_85" vType="car8@R_85" speedFactor="0.98" vaporized=""/>
    <tripinfo id="S_49" depart="18.00" departLane="4_0" departPos="6.10" departSpeed="11.18" departDelay="0.00" arrival="70.60" arrivalLane="-2_2" arrivalPos="200.00" arrivalSpeed="11.18" duration="52.60" routeLength="416.30" waitingTime="8.10" waitingCount="4" stopTime="0.00" timeLoss="15.35" rerouteNo="0" devices="tripinfo_S_49" vType="car6@S_49" speedFactor="0.85" vaporized=""/>
    <tripinfo id="R_91" depart="35.00" departLane="2_1" departPos="7.10" departSpeed="11.18" departDelay="0.00" arrival="71.40" arrivalLane="-1_0" arrivalPos="200.00" arrivalSpeed="11.18" duration="36.40" routeLength="398.06" waitingTime="0.00" waitingCount="0" stopTime="0.00" timeLoss="-2.12" rerouteNo="0" devices="tripinfo_R_91" vType="car7@R_91" speedFactor="0.89" vaporized=""/>
    <tripinfo id="S_72" depart="30.90" departLane="2_0" departPos="9.10" departSpeed="11.18" departDelay="2.90" arrival="71.50" arrivalLane="-4_1" arrivalPos="200.00" arrivalSpeed="11.18" duration="40.60" routeLength="413.30" waitingTime="0.00" waitingCount="0" stopTime="0.00" timeLoss="-0.49" rerouteNo="0" devices="tripinfo_S_72" vType="car9@S_72" speedFactor="0.94" vaporized=""/>
    <tripinfo id="R_80" depart="33.10" departLane="1_1" departPos="6.10" departSpeed="11.18" departDelay="2.10" arrival="71.60" arrivalLane="-4_0" arrivalPos="200.00" arrivalSpeed="11.18" duration="38.50" routeLength="399.06" waitingTime="0.10" waitingCount="1" stopTime="0.00" timeLoss="0.12" rerouteNo="0" devices="tripinfo_R_80" vType="car6@R_80" speedFactor="1.03" vaporized=""/>
    <tripinfo id="R_94" depart="36.00" departLane="4_0" departPos="5.10" departSpeed="11.18" departDelay="0.00" arrival="71.90" arrivalLane="-3_0" arrivalPos="200.00" arrivalSpeed="11.18" duration="35.90" routeLength="400.06" waitingTime="0.00" waitingCount="0" stopTime="0.00" timeLoss="-2.52" rerouteNo="0" devices="tripinfo_R_94" vType="car5@R_94" speedFactor="1.09" vaporized=""/>
    <tripinfo id="S_83" depart="32.00" departLane="3_2" departPos="6.10" departSpeed="11.18" departDelay="0.00" arrival="72.40" arrivalLane="-1_1" arrivalPos="200.00" arrivalSpeed="11.18" duration="40.40" routeLength="416.30" waitingTime="0.00" waitingCount="0" stopTime="0.00" timeLoss="1.87" rerouteNo="0" devices="tripinfo_S_83" vType="car6@S_83" speedFactor="0.97" vaporized=""/>
    <tripinfo id="S_73" depart="35.00" departLane="4_2" departPos="9.10" departSpeed="11.18" departDelay="7.00" arrival="72.80" arrivalLane="-2_1" arrivalPos="200.00" arrivalSpeed="11.18" duration="37.80" routeLength="413.30" waitingTime="0.00" waitingCount="0" stopTime="0.00" timeLoss="-0.04" rerouteNo="0" devices="tripinfo_S_73" vType="car9@S_73" speedFactor="1.06" vaporized=""/>
    <tripinfo id="R_95" depart="37.00" departLane="2_1" departPos="6.10" departSpeed="11.18" departDelay="0.00" arrival="72.80" arrivalLane="-1_0" arrivalPos="200.00" arrivalSpeed="11.18" duration="35.80" routeLength="399.06" waitingTime="0.00" waitingCount="0" stopTime="0.00" timeLoss="-2.55" rerouteNo="0" devices="tripinfo_R_95" vType="car6@R_95" speedFactor="1.06" vaporized=""/>
    <tripinfo id="L_55" depart="20.00" departLane="4_2" departPos="9.10" departSpeed="11.18" departDelay="0.00" arrival="73.90" arrivalLane="-1_2" arrivalPos="200.00" arrivalSpeed="11.18" duration="53.90" routeLength="410.45" waitingTime="9.70" waitingCount="7" stopTime="0.00" timeLoss="-4442.12" rerouteNo="0" devices="tripinfo_L_55" vType="car9@L_55" speedFactor="1.00" vaporized=""/>
    <tripinfo id="R_76" depart="35.40" departLane="4_2" departPos="6.10" departSpeed="11.18" departDelay="6.40" arrival="74.90" arrivalLane="-3_0" arrivalPos="200.00" arrivalSpeed="11.18" duration="39.50" routeLength="399.06" waitingTime="0.00" waitingCount="0" stopTime="0.00" timeLoss="1.15" rerouteNo="0" devices="tripinfo_R_76" vType="car6@R_76" speedFactor="1.03" vaporized=""/>
    <tripinfo id="R_98" depart="40.70" departLane="4_2" departPos="7.10" departSpeed="11.18" departDelay="1.70" arrival="79.10" arrivalLane="-3_0" arrivalPos="200.00" arrivalSpeed="11.18" duration="38.40" routeLength="398.06" waitingTime="0.00" waitingCount="0" stopTime="0.00" timeLoss="0.21" rerouteNo="0" devices="tripinfo_R_98" vType="car7@R_98" speedFactor="1.12" vaporized=""/>
    <tripinfo id="L_61" depart="23.00" departLane="4_1" departPos="8.10" departSpeed="11.18" departDelay="0.00" arrival="79.30" arrivalLane="-1_2" arrivalPos="200.00" arrivalSpeed="11.18" duration="56.30" routeLength="411.45" waitingTime="11.60" waitingCount="5" stopTime="0.00" timeLoss="-4591.47" rerouteNo="0" devices="tripinfo_L_61" vType="car8@L_61" speedFactor="1.12" vaporized=""/>