<?xml version="1.0" encoding="UTF-8"?>

<!-- generated on 01/17/21 11:04:03 by Eclipse SUMO sumo Version 1.8.0
<configuration xmlns:xsi="http://www.w3.org/2001/XMLSchema-instance" xsi:noNamespaceSchemaLocation="http://sumo.dlr.de/xsd/sumoConfiguration.xsd">

    <input>
        <net-file value="data/two_inter.net.xml"/>
        <route-files value="data/icacc+.rou.xml"/>
    </input>

    <output>
        <tripinfo-output value="tripinfo.xml"/>
    </output>

    <time>
        <begin value="0"/>
        <step-length value="0.1"/>
    </time>

    <processing>
        <threads value="8"/>
        <collision.mingap-factor value="0"/>
        <time-to-teleport value="-1"/>
        <default.speeddev value="1"/>
    </processing>

    <report>
        <verbose value="true"/>
        <log value="error_log.txt"/>
        <no-step-log value="true"/>
    </report>

    <traci_server>
        <remote-port value="5058"/>
    </traci_server>

    <gui_only>
        <start value="true"/>
        <tracker-interval value="0.1"/>
    </gui_only>

</configuration>
-->

<tripinfos xmlns:xsi="http://www.w3.org/2001/XMLSchema-instance" xsi:noNamespaceSchemaLocation="http://sumo.dlr.de/xsd/tripinfo_file.xsd">
    <tripinfo id="LX_2" depart="0.00" departLane="002_001_2_2" departPos="8.10" departSpeed="11.18" departDelay="0.00" arrival="37.20" arrivalLane="003_001_1_2" arrivalPos="200.00" arrivalSpeed="11.18" duration="37.20" routeLength="415.11" waitingTime="0.00" waitingCount="0" stopTime="0.00" timeLoss="-2.36" rerouteNo="1" devices="tripinfo_LX_2" vType="car8@LX_2" speedFactor="1.10" vaporized=""/>
    <tripinfo id="RX_7" depart="1.00" departLane="002_001_4_0" departPos="5.10" departSpeed="11.18" departDelay="0.00" arrival="37.20" arrivalLane="003_001_1_0" arrivalPos="200.00" arrivalSpeed="11.18" duration="36.20" routeLength="403.93" waitingTime="0.00" waitingCount="0" stopTime="0.00" timeLoss="-2.20" rerouteNo="1" devices="tripinfo_RX_7" vType="car5@RX_7" speedFactor="1.91" vaporized=""/>
    <tripinfo id="SX_4" depart="1.00" departLane="001_001_2_1" departPos="9.10" departSpeed="11.18" departDelay="0.00" arrival="38.40" arrivalLane="001_000_2_0" arrivalPos="200.00" arrivalSpeed="11.18" duration="37.40" routeLength="418.10" waitingTime="0.00" waitingCount="0" stopTime="0.00" timeLoss="0.00" rerouteNo="1" devices="tripinfo_SX_4" vType="car9@SX_4" speedFactor="1.30" vaporized=""/>
    <tripinfo id="RX_10" depart="3.00" departLane="001_001_2_0" departPos="8.10" departSpeed="11.18" departDelay="0.00" arrival="38.90" arrivalLane="000_001_3_0" arrivalPos="200.00" arrivalSpeed="11.18" duration="35.90" routeLength="400.93" waitingTime="0.00" waitingCount="0" stopTime="0.00" timeLoss="-2.55" rerouteNo="1" devices="tripinfo_RX_10" vType="car8@RX_10" speedFactor="1.10" vaporized=""/>
    <tripinfo id="LX_9" depart="2.00" departLane="002_001_2_2" departPos="8.10" departSpeed="11.18" departDelay="0.00" arrival="39.20" arrivalLane="003_001_1_2" arrivalPos="200.00" arrivalSpeed="11.18" duration="37.20" routeLength="415.11" waitingTime="0.00" waitingCount="0" stopTime="0.00" timeLoss="-2.36" rerouteNo="1" devices="tripinfo_LX_9" vType="car8@LX_9" speedFactor="1.47" vaporized=""/>
    <tripinfo id="SX_5" depart="1.00" departLane="002_001_2_1" departPos="8.10" departSpeed="11.18" departDelay="0.00" arrival="39.40" arrivalLane="002_000_2_1" arrivalPos="200.00" arrivalSpeed="11.18" duration="38.40" routeLength="419.10" waitingTime="0.00" waitingCount="0" stopTime="0.00" timeLoss="-0.03" rerouteNo="1" devices="tripinfo_SX_5" vType="car8@SX_5" speedFactor="1.46" vaporized=""/>
    <tripinfo id="RX_14" depart="4.00" departLane="002_001_3_0" departPos="7.10" departSpeed="11.18" departDelay="0.00" arrival="40.00" arrivalLane="002_002_4_0" arrivalPos="200.00" arrivalSpeed="11.18" duration="36.00" routeLength="401.93" waitingTime="0.00" waitingCount="0" stopTime="0.00" timeLoss="-2.47" rerouteNo="1" devices="tripinfo_RX_14" vType="car7@RX_14" speedFactor="1.18" vaporized=""/>
    <tripinfo id="RX_15" depart="4.00" departLane="002_001_4_0" departPos="7.10" departSpeed="11.18" departDelay="0.00" arrival="40.00" arrivalLane="003_001_1_0" arrivalPos="200.00" arrivalSpeed="11.18" duration="36.00" routeLength="401.93" waitingTime="0.00" waitingCount="0" stopTime="0.00" timeLoss="-2.55" rerouteNo="1" devices="tripinfo_RX_15" vType="car7@RX_15" speedFactor="1.10" vaporized=""/>
    <tripinfo id="LX_13" depart="4.00" departLane="001_001_4_2" departPos="9.10" departSpeed="11.18" departDelay="0.00" arrival="41.10" arrivalLane="000_001_3_2" arrivalPos="200.00" arrivalSpeed="11.18" duration="37.10" routeLength="414.11" waitingTime="0.00" waitingCount="0" stopTime="0.00" timeLoss="-2.36" rerouteNo="1" devices="tripinfo_LX_13" vType="car9@LX_13" speedFactor="1.46" vaporized=""/>
    <tripinfo id="RX_18" depart="5.50" departLane="002_001_3_0" departPos="9.10" departSpeed="11.18" departDelay="0.50" arrival="41.30" arrivalLane="002_002_4_0" arrivalPos="200.00" arrivalSpeed="11.18" duration="35.80" routeLength="399.93" waitingTime="0.00" waitingCount="0" stopTime="0.00" timeLoss="-2.42" rerouteNo="1" devices="tripinfo_RX_18" vType="car9@RX_18" speedFactor="1.26" vaporized=""/>
    <tripinfo id="LX_16" depart="5.40" departLane="001_001_4_2" departPos="8.10" departSpeed="11.18" departDelay="0.40" arrival="42.60" arrivalLane="000_001_3_2" arrivalPos="200.00" arrivalSpeed="11.18" duration="37.20" routeLength="415.11" waitingTime="0.00" waitingCount="0" stopTime="0.00" timeLoss="-2.36" rerouteNo="1" devices="tripinfo_LX_16" vType="car8@LX_16" speedFactor="1.00" vaporized=""/>
    <tripinfo id="RX_23" depart="6.80" departLane="002_001_3_0" departPos="7.10" departSpeed="11.18" departDelay="0.80" arrival="42.80" arrivalLane="002_002_4_0" arrivalPos="200.00" arrivalSpeed="11.18" duration="36.00" routeLength="401.93" waitingTime="0.00" waitingCount="0" stopTime="0.00" timeLoss="-2.36" rerouteNo="1" devices="tripinfo_RX_23" vType="car7@RX_23" speedFactor="1.30" vaporized=""/>
    <tripinfo id="RX_25" depart="7.00" departLane="001_001_1_0" departPos="6.10" departSpeed="11.18" departDelay="0.00" arrival="43.10" arrivalLane="001_000_2_0" arrivalPos="200.00" arrivalSpeed="11.18" duration="36.10" routeLength="402.93" waitingTime="0.00" waitingCount="0" stopTime="0.00" timeLoss="-2.20" rerouteNo="1" devices="tripinfo_RX_25" vType="car6@RX_25" speedFactor="1.92" vaporized=""/>
    <tripinfo id="SX_24" depart="6.00" departLane="002_001_4_1" departPos="9.10" departSpeed="11.18" departDelay="0.00" arrival="43.40" arrivalLane="002_002_4_2" arrivalPos="200.00" arrivalSpeed="11.18" duration="37.40" routeLength="418.10" waitingTime="0.00" waitingCount="0" stopTime="0.00" timeLoss="0.00" rerouteNo="1" devices="tripinfo_SX_24" vType="car9@SX_24" speedFactor="1.00" vaporized=""/>
    <tripinfo id="SX_22" depart="6.00" departLane="002_001_2_1" departPos="6.10" departSpeed="11.18" departDelay="0.00" arrival="43.70" arrivalLane="002_000_2_2" arrivalPos="200.00" arrivalSpeed="11.18" duration="37.70" routeLength="421.10" waitingTime="0.00" waitingCount="0" stopTime="0.00" timeLoss="0.00" rerouteNo="1" devices="tripinfo_SX_22" vType="car6@SX_22" speedFactor="1.00" vaporized=""/>
    <tripinfo id="RX_31" depart="8.00" departLane="002_001_4_0" departPos="9.10" departSpeed="11.18" departDelay="0.00" arrival="43.80" arrivalLane="003_001_1_0" arrivalPos="200.00" arrivalSpeed="11.18" duration="35.80" routeLength="399.93" waitingTime="0.00" waitingCount="0" stopTime="0.00" timeLoss="-2.21" rerouteNo="1" devices="tripinfo_RX_31" vType="car9@RX_31" speedFactor="1.96" vaporized=""/>
    <tripinfo id="SX_11" depart="3.00" departLane="002_001_2_1" departPos="7.10" departSpeed="11.18" departDelay="0.00" arrival="44.10" arrivalLane="002_000_2_0" arrivalPos="200.00" arrivalSpeed="11.18" duration="41.10" routeLength="420.10" waitingTime="0.00" waitingCount="0" stopTime="0.00" timeLoss="-1.91" rerouteNo="1" devices="tripinfo_SX_11" vType="car7@SX_11" speedFactor="1.83" vaporized=""/>
    <tripinfo id="RX_29" depart="8.40" departLane="001_001_1_0" departPos="8.10" departSpeed="11.18" departDelay="0.40" arrival="44.30" arrivalLane="001_000_2_0" arrivalPos="200.00" arrivalSpeed="11.18" duration="35.90" routeLength="400.93" waitingTime="0.00" waitingCount="0" stopTime="0.00" timeLoss="-2.67" rerouteNo="1" devices="tripinfo_RX_29" vType="car8@RX_29" speedFactor="1.00" vaporized=""/>
    <tripinfo id="LX_19" depart="6.00" departLane="001_001_1_2" departPos="9.10" departSpeed="11.18" departDelay="0.00" arrival="45.30" arrivalLane="001_002_4_2" arrivalPos="200.00" arrivalSpeed="11.18" duration="39.30" routeLength="414.12" waitingTime="1.20" waitingCount="1" stopTime="0.00" timeLoss="-4528.85" rerouteNo="1" devices="tripinfo_LX_19" vType="car9@LX_19" speedFactor="1.05" vaporized=""/>
    <tripinfo id="LX_30" depart="8.00" departLane="001_001_4_2" departPos="6.10" departSpeed="11.18" departDelay="0.00" arrival="45.90" arrivalLane="000_001_3_2" arrivalPos="200.00" arrivalSpeed="11.18" duration="37.90" routeLength="417.11" waitingTime="0.00" waitingCount="0" stopTime="0.00" timeLoss="-2.37" rerouteNo="1" devices="tripinfo_LX_30" vType="car6@LX_30" speedFactor="1.17" vaporized=""/>
    <tripinfo id="RX_38" depart="10.00" departLane="002_001_3_0" departPos="7.10" departSpeed="11.18" departDelay="0.00" arrival="46.00" arrivalLane="002_002_4_0" arrivalPos="200.00" arrivalSpeed="11.18" duration="36.00" routeLength="401.93" waitingTime="0.00" waitingCount="0" stopTime="0.00" timeLoss="-2.55" rerouteNo="1" devices="tripinfo_RX_38" vType="car7@RX_38" speedFactor="1.10" vaporized=""/>
    <tripinfo id="LX_37" depart="10.00" departLane="002_001_2_2" departPos="5.10" departSpeed="11.18" departDelay="0.00" arrival="47.50" arrivalLane="003_001_1_2" arrivalPos="200.00" arrivalSpeed="11.18" duration="37.50" routeLength="418.11" waitingTime="0.00" waitingCount="0" stopTime="0.00" timeLoss="-2.36" rerouteNo="1" devices="tripinfo_LX_37" vType="car5@LX_37" speedFactor="1.16" vaporized=""/>
    <tripinfo id="RX_44" depart="12.00" departLane="001_001_1_0" departPos="6.10" departSpeed="11.18" departDelay="0.00" arrival="48.10" arrivalLane="001_000_2_0" arrivalPos="200.00" arrivalSpeed="11.18" duration="36.10" routeLength="402.93" waitingTime="0.00" waitingCount="0" stopTime="0.00" timeLoss="-2.67" rerouteNo="1" devices="tripinfo_RX_44" vType="car6@RX_44" speedFactor="1.00" vaporized=""/>
    <tripinfo id="SX_33" depart="9.00" departLane="001_001_2_1" departPos="9.10" departSpeed="11.18" departDelay="0.00" arrival="48.40" arrivalLane="001_000_2_1" arrivalPos="200.00" arrivalSpeed="11.18" duration="39.40" routeLength="418.10" waitingTime="0.00" waitingCount="0" stopTime="0.00" timeLoss="-0.77" rerouteNo="1" devices="tripinfo_SX_33" vType="car9@SX_33" speedFactor="1.00" vaporized=""/>
    <tripinfo id="SX_42" depart="11.00" departLane="002_001_2_1" departPos="9.10" departSpeed="11.18" departDelay="0.00" arrival="49.40" arrivalLane="002_000_2_1" arrivalPos="200.00" arrivalSpeed="11.18" duration="38.40" routeLength="418.10" waitingTime="0.00" waitingCount="0" stopTime="0.00" timeLoss="-0.04" rerouteNo="1" devices="tripinfo_SX_42" vType="car9@SX_42" speedFactor="1.23" vaporized=""/>
    <tripinfo id="LX_32" depart="9.00" departLane="001_001_1_2" departPos="9.10" departSpeed="11.18" departDelay="0.00" arrival="49.90" arrivalLane="001_002_4_2" arrivalPos="200.00" arrivalSpeed="11.18" duration="40.90" routeLength="414.12" waitingTime="2.50" waitingCount="1" stopTime="0.00" timeLoss="-4881.51" rerouteNo="1" devices="tripinfo_LX_32" vType="car9@LX_32" speedFactor="1.03" vaporized=""/>
    <tripinfo id="LX_48" depart="13.00" departLane="002_001_2_2" departPos="7.10" departSpeed="11.18" departDelay="0.00" arrival="50.30" arrivalLane="003_001_1_2" arrivalPos="200.00" arrivalSpeed="11.18" duration="37.30" routeLength="416.11" waitingTime="0.00" waitingCount="0" stopTime="0.00" timeLoss="-2.36" rerouteNo="1" devices="tripinfo_LX_48" vType="car7@LX_48" speedFactor="1.32" vaporized=""/>
    <tripinfo id="LX_35" depart="10.50" departLane="001_001_1_2" departPos="9.10" departSpeed="11.18" departDelay="0.50" arrival="51.00" arrivalLane="001_002_4_2" arrivalPos="200.00" arrivalSpeed="11.18" duration="40.50" routeLength="414.12" waitingTime="2.30" waitingCount="1" stopTime="0.00" timeLoss="0.98" rerouteNo="1" devices="tripinfo_LX_35" vType="car9@LX_35" speedFactor="1.18" vaporized=""/>
    <tripinfo id="RX_58" depart="15.00" departLane="002_001_4_0" departPos="6.10" departSpeed="11.18" departDelay="0.00" arrival="51.10" arrivalLane="003_001_1_0" arrivalPos="200.00" arrivalSpeed="11.18" duration="36.10" routeLength="402.93" waitingTime="0.00" waitingCount="0" stopTime="0.00" timeLoss="-2.27" rerouteNo="1" devices="tripinfo_RX_58" vType="car6@RX_58" speedFactor="1.43" vaporized=""/>
    <tripinfo id="LX_36" depart="10.00" departLane="001_001_4_2" departPos="9.10" departSpeed="11.18" departDelay="0.00" arrival="51.70" arrivalLane="000_001_3_2" arrivalPos="200.00" arrivalSpeed="11.18" duration="41.70" routeLength="414.11" waitingTime="0.00" waitingCount="0" stopTime="0.00" timeLoss="-4.02" rerouteNo="1" devices="tripinfo_LX_36" vType="car9@LX_36" speedFactor="1.82" vaporized=""/>
    <tripinfo id="SX_56" depart="15.00" departLane="001_001_4_1" departPos="6.10" departSpeed="11.18" departDelay="0.00" arrival="52.70" arrivalLane="001_002_4_1" arrivalPos="200.00" arrivalSpeed="11.18" duration="37.70" routeLength="421.10" waitingTime="0.00" waitingCount="0" stopTime="0.00" timeLoss="0.00" rerouteNo="1" devices="tripinfo_SX_56" vType="car6@SX_56" speedFactor="1.00" vaporized=""/>
    <tripinfo id="RX_62" depart="16.00" departLane="002_001_3_0" departPos="9.10" departSpeed="11.18" departDelay="0.00" arrival="52.80" arrivalLane="002_002_4_2" arrivalPos="200.00" arrivalSpeed="11.18" duration="36.80" routeLength="410.25" waitingTime="0.00" waitingCount="0" stopTime="0.00" timeLoss="-2.32" rerouteNo="1" devices="tripinfo_RX_62" vType="car9@RX_62" speedFactor="1.92" vaporized=""/>
    <tripinfo id="SX_40" depart="11.00" departLane="001_001_2_1" departPos="7.10" departSpeed="11.18" departDelay="0.00" arrival="54.10" arrivalLane="001_000_2_1" arrivalPos="200.00" arrivalSpeed="11.18" duration="43.10" routeLength="420.10" waitingTime="3.80" waitingCount="1" stopTime="0.00" timeLoss="-4675.65" rerouteNo="1" devices="tripinfo_SX_40" vType="car7@SX_40" speedFactor="1.40" vaporized=""/>
    <tripinfo id="LX_61" depart="16.20" departLane="002_001_2_2" departPos="6.10" departSpeed="11.18" departDelay="0.20" arrival="54.50" arrivalLane="003_001_1_2" arrivalPos="200.00" arrivalSpeed="11.18" duration="38.30" routeLength="417.11" waitingTime="0.00" waitingCount="0" stopTime="0.00" timeLoss="-1.48" rerouteNo="1" devices="tripinfo_LX_61" vType="car6@LX_61" speedFactor="1.17" vaporized=""/>
    <tripinfo id="LX_41" depart="11.10" departLane="001_001_4_2" departPos="5.10" departSpeed="11.18" departDelay="0.10" arrival="54.90" arrivalLane="000_001_3_2" arrivalPos="200.00" arrivalSpeed="11.18" duration="43.80" routeLength="418.11" waitingTime="1.10" waitingCount="1" stopTime="0.00" timeLoss="-4402.50" rerouteNo="1" devices="tripinfo_LX_41" vType="car5@LX_41" speedFactor="1.22" vaporized=""/>
    <tripinfo id="LX_45" depart="12.30" departLane="001_001_4_2" departPos="6.10" departSpeed="11.18" departDelay="0.30" arrival="55.60" arrivalLane="000_001_3_2" arrivalPos="200.00" arrivalSpeed="11.18" duration="43.30" routeLength="417.11" waitingTime="1.20" waitingCount="1" stopTime="0.00" timeLoss="3.57" rerouteNo="1" devices="tripinfo_LX_45" vType="car6@LX_45" speedFactor="1.56" vaporized=""/>
    <tripinfo id="SR_0" depart="0.00" departLane="001_001_1_1" departPos="5.10" departSpeed="11.18" departDelay="0.00" arrival="56.50" arrivalLane="002_000_2_0" arrivalPos="200.00" arrivalSpeed="11.18" duration="56.50" routeLength="631.13" waitingTime="0.00" waitingCount="0" stopTime="0.00" timeLoss="-2.21" rerouteNo="2" devices="tripinfo_SR_0" vType="car5@SR_0" speedFactor="1.60" vaporized=""/>
    <tripinfo id="SX_46" depart="13.00" departLane="001_001_2_1" departPos="5.10" departSpeed="11.18" departDelay="0.00" arrival="56.70" arrivalLane="001_000_2_2" arrivalPos="200.00" arrivalSpeed="11.18" duration="43.70" routeLength="422.10" waitingTime="0.00" waitingCount="0" stopTime="0.00" timeLoss="-0.93" rerouteNo="1" devices="tripinfo_SX_46" vType="car5@SX_46" speedFactor="1.05" vaporized=""/>
    <tripinfo id="RX_78" depart="21.00" departLane="002_001_4_0" departPos="8.10" departSpeed="11.18" departDelay="0.00" arrival="56.90" arrivalLane="003_001_1_0" arrivalPos="200.00" arrivalSpeed="11.18" duration="35.90" routeLength="400.93" waitingTime="0.00" waitingCount="0" stopTime="0.00" timeLoss="-2.56" rerouteNo="1" devices="tripinfo_RX_78" vType="car8@RX_78" speedFactor="1.09" vaporized=""/>
    <tripinfo id="LX_71" depart="19.70" departLane="002_001_3_2" departPos="9.10" departSpeed="11.18" departDelay="0.70" arrival="57.70" arrivalLane="002_000_2_2" arrivalPos="200.00" arrivalSpeed="11.18" duration="38.00" routeLength="414.12" waitingTime="0.10" waitingCount="1" stopTime="0.00" timeLoss="-1.48" rerouteNo="1" devices="tripinfo_LX_71" vType="car9@LX_71" speedFactor="1.73" vaporized=""/>
    <tripinfo id="RX_55" depart="15.40" departLane="001_001_2_0" departPos="8.10" departSpeed="11.18" departDelay="0.40" arrival="57.90" arrivalLane="000_001_3_0" arrivalPos="200.00" arrivalSpeed="11.18" duration="42.50" routeLength="400.93" waitingTime="5.80" waitingCount="1" stopTime="0.00" timeLoss="4.24" rerouteNo="1" devices="tripinfo_RX_55" vType="car8@RX_55" speedFactor="1.30" vaporized=""/>
    <tripinfo id="LR_8" depart="2.00" departLane="001_001_2_2" departPos="5.10" departSpeed="11.18" departDelay="0.00" arrival="58.20" arrivalLane="002_000_2_0" arrivalPos="200.00" arrivalSpeed="11.18" duration="56.20" routeLength="627.14" waitingTime="0.00" waitingCount="0" stopTime="0.00" timeLoss="-2.64" rerouteNo="2" devices="tripinfo_LR_8" vType="car5@LR_8" speedFactor="1.26" vaporized=""/>
    <tripinfo id="SX_51" depart="14.00" departLane="001_001_2_1" departPos="6.10" departSpeed="11.18" departDelay="0.00" arrival="58.70" arrivalLane="001_000_2_0" arrivalPos="200.00" arrivalSpeed="11.18" duration="44.70" routeLength="421.10" waitingTime="6.10" waitingCount="1" stopTime="0.00" timeLoss="-4180.09" rerouteNo="1" devices="tripinfo_SX_51" vType="car6@SX_51" speedFactor="1.87" vaporized=""/>
    <tripinfo id="LX_77" depart="21.10" departLane="002_001_3_2" departPos="8.10" departSpeed="11.18" departDelay="0.10" arrival="58.80" arrivalLane="002_000_2_2" arrivalPos="200.00" arrivalSpeed="11.18" duration="37.70" routeLength="415.12" waitingTime="0.00" waitingCount="0" stopTime="0.00" timeLoss="-1.91" rerouteNo="1" devices="tripinfo_LX_77" vType="car8@LX_77" speedFactor="1.99" vaporized=""/>
    <tripinfo id="SX_59" depart="16.00" departLane="001_001_2_1" departPos="5.10" departSpeed="11.18" departDelay="0.00" arrival="58.90" arrivalLane="001_000_2_1" arrivalPos="200.00" arrivalSpeed="11.18" duration="42.90" routeLength="422.10" waitingTime="0.00" waitingCount="0" stopTime="0.00" timeLoss="-0.35" rerouteNo="1" devices="tripinfo_SX_59" vType="car5@SX_59" speedFactor="1.07" vaporized=""/>
    <tripinfo id="RX_69" depart="19.00" departLane="001_001_2_0" departPos="7.10" departSpeed="11.18" departDelay="0.00" arrival="58.90" arrivalLane="000_001_3_0" arrivalPos="200.00" arrivalSpeed="11.18" duration="39.90" routeLength="401.93" waitingTime="2.70" waitingCount="1" stopTime="0.00" timeLoss="1.60" rerouteNo="1" devices="tripinfo_RX_69" vType="car7@RX_69" speedFactor="1.43" vaporized=""/>
    <tripinfo id="SX_70" depart="19.00" departLane="002_001_2_1" departPos="7.10" departSpeed="11.18" departDelay="0.00" arrival="59.00" arrivalLane="002_000_2_1" arrivalPos="200.00" arrivalSpeed="11.18" duration="40.00" routeLength="420.10" waitingTime="0.00" waitingCount="0" stopTime="0.00" timeLoss="-0.19" rerouteNo="1" devices="tripinfo_SX_70" vType="car7@SX_70" speedFactor="1.88" vaporized=""/>
    <tripinfo id="RX_79" depart="22.00" departLane="001_001_1_0" departPos="8.10" departSpeed="11.18" departDelay="0.00" arrival="59.80" arrivalLane="001_000_2_0" arrivalPos="200.00" arrivalSpeed="11.18" duration="37.80" routeLength="400.93" waitingTime="0.00" waitingCount="0" stopTime="0.00" timeLoss="-2.52" rerouteNo="1" devices="tripinfo_RX_79" vType="car8@RX_79" speedFactor="1.96" vaporized=""/>
    <tripinfo id="LX_81" depart="22.30" departLane="002_001_3_2" departPos="6.10" departSpeed="11.18" departDelay="0.30" arrival="60.00" arrivalLane="002_000_2_2" arrivalPos="200.00" arrivalSpeed="11.18" duration="37.70" routeLength="417.12" waitingTime="0.00" waitingCount="0" stopTime="0.00" timeLoss="-2.05" rerouteNo="1" devices="tripinfo_LX_81" vType="car6@LX_81" speedFactor="1.04" vaporized=""/>
    <tripinfo id="SX_73" depart="20.00" departLane="001_001_4_1" departPos="6.10" departSpeed="11.18" departDelay="0.00" arrival="60.10" arrivalLane="001_002_4_1" arrivalPos="200.00" arrivalSpeed="11.18" duration="40.10" routeLength="421.10" waitingTime="0.00" waitingCount="0" stopTime="0.00" timeLoss="-0.34" rerouteNo="1" devices="tripinfo_SX_73" vType="car6@SX_73" speedFactor="1.34" vaporized=""/>
    <tripinfo id="LL_1" depart="0.00" departLane="001_001_2_2" departPos="8.10" departSpeed="11.18" departDelay="0.00" arrival="60.20" arrivalLane="002_002_4_2" arrivalPos="200.00" arrivalSpeed="11.18" duration="60.20" routeLength="638.33" waitingTime="0.00" waitingCount="0" stopTime="0.00" timeLoss="-2.92" rerouteNo="2" devices="tripinfo_LL_1" vType="car8@LL_1" speedFactor="1.60" vaporized=""/>
    <tripinfo id="RX_74" depart="21.00" departLane="001_001_2_0" departPos="6.10" departSpeed="11.18" departDelay="0.00" arrival="60.40" arrivalLane="000_001_3_0" arrivalPos="200.00" arrivalSpeed="11.18" duration="39.40" routeLength="402.93" waitingTime="1.50" waitingCount="1" stopTime="0.00" timeLoss="-0.32" rerouteNo="1" devices="tripinfo_RX_74" vType="car6@RX_74" speedFactor="1.65" vaporized=""/>
    <tripinfo id="RX_85" depart="24.00" departLane="001_001_1_0" departPos="9.10" departSpeed="11.18" departDelay="0.00" arrival="60.90" arrivalLane="001_000_2_0" arrivalPos="200.00" arrivalSpeed="11.18" duration="36.90" routeLength="399.93" waitingTime="0.00" waitingCount="0" stopTime="0.00" timeLoss="-2.33" rerouteNo="1" devices="tripinfo_RX_85" vType="car9@RX_85" speedFactor="1.31" vaporized=""/>
    <tripinfo id="RX_80" depart="22.50" departLane="001_001_2_0" departPos="9.10" departSpeed="11.18" departDelay="0.50" arrival="61.20" arrivalLane="000_001_3_0" arrivalPos="200.00" arrivalSpeed="11.18" duration="38.70" routeLength="399.93" waitingTime="0.70" waitingCount="1" stopTime="0.00" timeLoss="0.67" rerouteNo="1" devices="tripinfo_RX_80" vType="car9@RX_80" speedFactor="1.96" vaporized=""/>
    <tripinfo id="LX_89" depart="24.00" departLane="002_001_3_2" departPos="9.10" departSpeed="11.18" departDelay="0.00" arrival="61.20" arrivalLane="002_000_2_2" arrivalPos="200.00" arrivalSpeed="11.18" duration="37.20" routeLength="414.12" waitingTime="0.00" waitingCount="0" stopTime="0.00" timeLoss="-2.22" rerouteNo="1" devices="tripinfo_LX_89" vType="car9@LX_89" speedFactor="1.08" vaporized=""/>
    <tripinfo id="LX_65" depart="18.50" departLane="001_001_1_2" departPos="9.10" departSpeed="11.18" departDelay="0.50" arrival="61.30" arrivalLane="001_002_4_2" arrivalPos="200.00" arrivalSpeed="11.18" duration="42.80" routeLength="414.12" waitingTime="3.40" waitingCount="2" stopTime="0.00" timeLoss="3.32" rerouteNo="1" devices="tripinfo_LX_65" vType="car9@LX_65" speedFactor="1.10" vaporized=""/>
    <tripinfo id="LX_68" depart="19.60" departLane="001_001_1_2" departPos="5.10" departSpeed="11.18" departDelay="0.60" arrival="62.40" arrivalLane="001_002_4_2" arrivalPos="200.00" arrivalSpeed="11.18" duration="42.80" routeLength="418.12" waitingTime="2.60" waitingCount="2" stopTime="0.00" timeLoss="2.90" rerouteNo="1" devices="tripinfo_LX_68" vType="car5@LX_68" speedFactor="1.38" vaporized=""/>
    <tripinfo id="RX_86" depart="24.00" departLane="001_001_2_0" departPos="9.10" departSpeed="11.18" departDelay="0.00" arrival="62.70" arrivalLane="000_001_3_0" arrivalPos="200.00" arrivalSpeed="11.18" duration="38.70" routeLength="399.93" waitingTime="0.00" waitingCount="0" stopTime="0.00" timeLoss="-0.32" rerouteNo="1" devices="tripinfo_RX_86" vType="car9@RX_86" speedFactor="1.23" vaporized=""/>
    <tripinfo id="LX_88" depart="24.00" departLane="002_001_2_2" departPos="6.10" departSpeed="11.18" departDelay="0.00" arrival="62.80" arrivalLane="003_001_1_2" arrivalPos="200.00" arrivalSpeed="11.18" duration="38.80" routeLength="417.11" waitingTime="0.00" waitingCount="0" stopTime="0.00" timeLoss="-2.43" rerouteNo="1" devices="tripinfo_LX_88" vType="car6@LX_88" speedFactor="1.32" vaporized=""/>
    <tripinfo id="SX_92" depart="25.00" departLane="002_001_2_1" departPos="6.10" departSpeed="11.18" departDelay="0.00" arrival="62.80" arrivalLane="002_000_2_0" arrivalPos="200.00" arrivalSpeed="11.18" duration="37.80" routeLength="421.10" waitingTime="0.00" waitingCount="0" stopTime="0.00" timeLoss="0.00" rerouteNo="1" devices="tripinfo_SX_92" vType="car6@SX_92" speedFactor="1.24" vaporized=""/>
    <tripinfo id="LL_3" depart="0.00" departLane="002_001_4_2" departPos="5.10" departSpeed="11.18" departDelay="0.00" arrival="63.00" arrivalLane="001_000_2_2" arrivalPos="200.00" arrivalSpeed="11.18" duration="63.00" routeLength="641.33" waitingTime="4.70" waitingCount="1" stopTime="0.00" timeLoss="-3927.34" rerouteNo="2" devices="tripinfo_LL_3" vType="car5@LL_3" speedFactor="1.83" vaporized=""/>
    <tripinfo id="RX_99" depart="27.00" departLane="002_001_3_0" departPos="5.10" departSpeed="11.18" departDelay="0.00" arrival="63.20" arrivalLane="002_002_4_0" arrivalPos="200.00" arrivalSpeed="11.18" duration="36.20" routeLength="403.93" waitingTime="0.00" waitingCount="0" stopTime="0.00" timeLoss="-2.64" rerouteNo="1" devices="tripinfo_RX_99" vType="car5@RX_99" speedFactor="1.02" vaporized=""/>
    <tripinfo id="RX_96" depart="27.00" departLane="001_001_2_0" departPos="9.10" departSpeed="11.18" departDelay="0.00" arrival="63.90" arrivalLane="000_001_3_0" arrivalPos="200.00" arrivalSpeed="11.18" duration="36.90" routeLength="399.93" waitingTime="0.00" waitingCount="0" stopTime="0.00" timeLoss="-1.88" rerouteNo="1" devices="tripinfo_RX_96" vType="car9@RX_96" speedFactor="1.04" vaporized=""/>
    <tripinfo id="SX_75" depart="21.20" departLane="001_001_4_1" departPos="6.10" departSpeed="11.18" departDelay="0.20" arrival="64.40" arrivalLane="001_002_4_1" arrivalPos="200.00" arrivalSpeed="11.18" duration="43.20" routeLength="421.10" waitingTime="2.50" waitingCount="1" stopTime="0.00" timeLoss="-4265.50" rerouteNo="1" devices="tripinfo_SX_75" vType="car6@SX_75" speedFactor="1.00" vaporized=""/>
    <tripinfo id="SX_95" depart="26.00" departLane="002_001_4_1" departPos="6.10" departSpeed="11.18" departDelay="0.00" arrival="64.90" arrivalLane="002_002_4_1" arrivalPos="200.00" arrivalSpeed="11.18" duration="38.90" routeLength="421.10" waitingTime="0.00" waitingCount="0" stopTime="0.00" timeLoss="-0.05" rerouteNo="1" devices="tripinfo_SX_95" vType="car6@SX_95" speedFactor="1.15" vaporized=""/>
    <tripinfo id="RX_101" depart="28.10" departLane="001_001_2_0" departPos="5.10" departSpeed="11.18" departDelay="0.10" arrival="65.20" arrivalLane="000_001_3_0" arrivalPos="200.00" arrivalSpeed="11.18" duration="37.10" routeLength="403.93" waitingTime="0.00" waitingCount="0" stopTime="0.00" timeLoss="-1.58" rerouteNo="1" devices="tripinfo_RX_101" vType="car5@RX_101" speedFactor="1.40" vaporized=""/>
    <tripinfo id="LX_87" depart="24.00" departLane="001_001_4_2" departPos="5.10" departSpeed="11.18" departDelay="0.00" arrival="65.30" arrivalLane="000_001_3_2" arrivalPos="200.00" arrivalSpeed="11.18" duration="41.30" routeLength="418.11" waitingTime="0.00" waitingCount="0" stopTime="0.00" timeLoss="-3.19" rerouteNo="1" devices="tripinfo_LX_87" vType="car5@LX_87" speedFactor="1.61" vaporized=""/>
    <tripinfo id="RR_17" depart="5.00" departLane="002_001_2_0" departPos="6.10" departSpeed="11.18" departDelay="0.00" arrival="65.90" arrivalLane="001_002_4_0" arrivalPos="200.00" arrivalSpeed="11.18" duration="60.90" routeLength="611.96" waitingTime="0.00" waitingCount="0" stopTime="0.00" timeLoss="3.81" rerouteNo="2" devices="tripinfo_RR_17" vType="car6@RR_17" speedFactor="1.91" vaporized=""/>
    <tripinfo id="LX_94" depart="26.00" departLane="002_001_3_2" departPos="8.10" departSpeed="11.18" departDelay="0.00" arrival="66.20" arrivalLane="002_000_2_2" arrivalPos="200.00" arrivalSpeed="11.18" duration="40.20" routeLength="415.12" waitingTime="2.00" waitingCount="1" stopTime="0.00" timeLoss="-4534.92" rerouteNo="1" devices="tripinfo_LX_94" vType="car8@LX_94" speedFactor="1.12" vaporized=""/>
    <tripinfo id="RL_21" depart="6.00" departLane="001_001_4_0" departPos="8.10" departSpeed="11.18" departDelay="0.00" arrival="66.30" arrivalLane="002_002_4_2" arrivalPos="200.00" arrivalSpeed="11.18" duration="60.30" routeLength="624.15" waitingTime="0.00" waitingCount="0" stopTime="0.00" timeLoss="-3.14" rerouteNo="2" devices="tripinfo_RL_21" vType="car8@RL_21" speedFactor="1.20" vaporized=""/>
    <tripinfo id="SS_6" depart="1.00" departLane="002_001_3_1" departPos="6.10" departSpeed="11.18" departDelay="0.00" arrival="66.70" arrivalLane="000_001_3_0" arrivalPos="200.00" arrivalSpeed="11.18" duration="65.70" routeLength="648.30" waitingTime="0.00" waitingCount="0" stopTime="0.00" timeLoss="-4.00" rerouteNo="2" devices="tripinfo_SS_6" vType="car6@SS_6" speedFactor="1.00" vaporized=""/>