<?xml version="1.0" encoding="UTF-8"?>

<!-- generated on 01/31/21 15:58:10 by Eclipse SUMO GUI Version 1.8.0
<configuration xmlns:xsi="http://www.w3.org/2001/XMLSchema-instance" xsi:noNamespaceSchemaLocation="http://sumo.dlr.de/xsd/sumoConfiguration.xsd">

    <input>
        <net-file value="data/two_inter.net.xml"/>
        <route-files value="data/icacc+.rou.xml"/>
    </input>

    <output>
        <tripinfo-output value="tripinfo.xml"/>
    </output>

    <time>
        <begin value="0"/>
        <step-length value="0.1"/>
    </time>

    <processing>
        <threads value="8"/>
        <collision.mingap-factor value="0"/>
        <time-to-teleport value="-1"/>
        <default.speeddev value="1"/>
    </processing>

    <report>
        <verbose value="true"/>
        <log value="error_log.txt"/>
        <no-step-log value="true"/>
    </report>

    <traci_server>
        <remote-port value="5714"/>
    </traci_server>

    <gui_only>
        <start value="true"/>
        <tracker-interval value="0.1"/>
    </gui_only>

</configuration>
-->

<tripinfos xmlns:xsi="http://www.w3.org/2001/XMLSchema-instance" xsi:noNamespaceSchemaLocation="http://sumo.dlr.de/xsd/tripinfo_file.xsd">
    <tripinfo id="RX_6" depart="1.00" departLane="001_001_2_0" departPos="8.10" departSpeed="11.18" departDelay="0.00" arrival="36.90" arrivalLane="000_001_3_0" arrivalPos="200.00" arrivalSpeed="11.18" duration="35.90" routeLength="400.93" waitingTime="0.00" waitingCount="0" stopTime="0.00" timeLoss="-2.67" rerouteNo="1" devices="tripinfo_RX_6" vType="car8@RX_6" speedFactor="1.00" vaporized=""/>
    <tripinfo id="RX_5" depart="1.00" departLane="001_001_1_0" departPos="6.10" departSpeed="11.18" departDelay="0.00" arrival="37.10" arrivalLane="001_000_2_0" arrivalPos="200.00" arrivalSpeed="11.18" duration="36.10" routeLength="402.93" waitingTime="0.00" waitingCount="0" stopTime="0.00" timeLoss="-2.25" rerouteNo="1" devices="tripinfo_RX_5" vType="car6@RX_5" speedFactor="1.46" vaporized=""/>
    <tripinfo id="SX_2" depart="0.00" departLane="001_001_4_1" departPos="7.10" departSpeed="11.18" departDelay="0.00" arrival="37.60" arrivalLane="001_002_4_2" arrivalPos="200.00" arrivalSpeed="11.18" duration="37.60" routeLength="420.10" waitingTime="0.00" waitingCount="0" stopTime="0.00" timeLoss="0.00" rerouteNo="1" devices="tripinfo_SX_2" vType="car7@SX_2" speedFactor="1.10" vaporized=""/>
    <tripinfo id="SX_1" depart="0.00" departLane="001_001_2_1" departPos="6.10" departSpeed="11.18" departDelay="0.00" arrival="37.70" arrivalLane="001_000_2_2" arrivalPos="200.00" arrivalSpeed="11.18" duration="37.70" routeLength="421.10" waitingTime="0.00" waitingCount="0" stopTime="0.00" timeLoss="0.00" rerouteNo="1" devices="tripinfo_SX_1" vType="car6@SX_1" speedFactor="1.60" vaporized=""/>
    <tripinfo id="SX_3" depart="0.00" departLane="002_001_2_1" departPos="6.10" departSpeed="11.18" departDelay="0.00" arrival="37.70" arrivalLane="002_000_2_2" arrivalPos="200.00" arrivalSpeed="11.18" duration="37.70" routeLength="421.10" waitingTime="0.00" waitingCount="0" stopTime="0.00" timeLoss="0.00" rerouteNo="1" devices="tripinfo_SX_3" vType="car6@SX_3" speedFactor="1.83" vaporized=""/>
    <tripinfo id="RX_8" depart="1.00" departLane="002_001_3_0" departPos="9.10" departSpeed="11.18" departDelay="0.00" arrival="37.70" arrivalLane="002_002_4_0" arrivalPos="200.00" arrivalSpeed="11.18" duration="36.70" routeLength="399.93" waitingTime="0.00" waitingCount="0" stopTime="0.00" timeLoss="-2.42" rerouteNo="1" devices="tripinfo_RX_8" vType="car9@RX_8" speedFactor="1.26" vaporized=""/>
    <tripinfo id="RX_13" depart="2.00" departLane="002_001_4_0" departPos="9.10" departSpeed="11.18" departDelay="0.00" arrival="38.70" arrivalLane="003_001_1_0" arrivalPos="200.00" arrivalSpeed="11.18" duration="36.70" routeLength="399.93" waitingTime="0.00" waitingCount="0" stopTime="0.00" timeLoss="-2.28" rerouteNo="1" devices="tripinfo_RX_13" vType="car9@RX_13" speedFactor="1.46" vaporized=""/>
    <tripinfo id="RX_14" depart="3.00" departLane="001_001_1_0" departPos="9.10" departSpeed="11.18" departDelay="0.00" arrival="38.80" arrivalLane="001_000_2_0" arrivalPos="200.00" arrivalSpeed="11.18" duration="35.80" routeLength="399.93" waitingTime="0.00" waitingCount="0" stopTime="0.00" timeLoss="-2.50" rerouteNo="1" devices="tripinfo_RX_14" vType="car9@RX_14" speedFactor="1.18" vaporized=""/>
    <tripinfo id="RX_18" depart="3.00" departLane="002_001_3_0" departPos="7.10" departSpeed="11.18" departDelay="0.00" arrival="39.00" arrivalLane="002_002_4_0" arrivalPos="200.00" arrivalSpeed="11.18" duration="36.00" routeLength="401.93" waitingTime="0.00" waitingCount="0" stopTime="0.00" timeLoss="-2.39" rerouteNo="1" devices="tripinfo_RX_18" vType="car7@RX_18" speedFactor="1.26" vaporized=""/>
    <tripinfo id="RX_15" depart="3.00" departLane="001_001_2_0" departPos="5.10" departSpeed="11.18" departDelay="0.00" arrival="39.20" arrivalLane="000_001_3_0" arrivalPos="200.00" arrivalSpeed="11.18" duration="36.20" routeLength="403.93" waitingTime="0.00" waitingCount="0" stopTime="0.00" timeLoss="-2.55" rerouteNo="1" devices="tripinfo_RX_15" vType="car5@RX_15" speedFactor="1.10" vaporized=""/>
    <tripinfo id="SX_9" depart="1.00" departLane="002_001_4_1" departPos="8.10" departSpeed="11.18" departDelay="0.00" arrival="39.40" arrivalLane="002_002_4_1" arrivalPos="200.00" arrivalSpeed="11.18" duration="38.40" routeLength="419.10" waitingTime="0.00" waitingCount="0" stopTime="0.00" timeLoss="-0.03" rerouteNo="1" devices="tripinfo_SX_9" vType="car8@SX_9" speedFactor="1.47" vaporized=""/>
    <tripinfo id="RX_25" depart="4.00" departLane="002_001_4_0" departPos="9.10" departSpeed="11.18" departDelay="0.00" arrival="39.80" arrivalLane="003_001_1_0" arrivalPos="200.00" arrivalSpeed="11.18" duration="35.80" routeLength="399.93" waitingTime="0.00" waitingCount="0" stopTime="0.00" timeLoss="-2.21" rerouteNo="1" devices="tripinfo_RX_25" vType="car9@RX_25" speedFactor="1.92" vaporized=""/>
    <tripinfo id="LX_12" depart="2.00" departLane="001_001_4_2" departPos="8.10" departSpeed="11.18" departDelay="0.00" arrival="39.90" arrivalLane="000_001_3_2" arrivalPos="200.00" arrivalSpeed="11.18" duration="37.90" routeLength="415.11" waitingTime="0.00" waitingCount="0" stopTime="0.00" timeLoss="-2.37" rerouteNo="1" devices="tripinfo_LX_12" vType="car8@LX_12" speedFactor="1.30" vaporized=""/>
    <tripinfo id="RX_21" depart="4.30" departLane="001_001_2_0" departPos="7.10" departSpeed="11.18" departDelay="0.30" arrival="40.30" arrivalLane="000_001_3_0" arrivalPos="200.00" arrivalSpeed="11.18" duration="36.00" routeLength="401.93" waitingTime="0.00" waitingCount="0" stopTime="0.00" timeLoss="-2.45" rerouteNo="1" devices="tripinfo_RX_21" vType="car7@RX_21" speedFactor="1.20" vaporized=""/>
    <tripinfo id="SX_7" depart="1.00" departLane="001_001_4_1" departPos="9.10" departSpeed="11.18" departDelay="0.00" arrival="41.30" arrivalLane="001_002_4_1" arrivalPos="200.00" arrivalSpeed="11.18" duration="40.30" routeLength="418.10" waitingTime="0.00" waitingCount="0" stopTime="0.00" timeLoss="-0.30" rerouteNo="1" devices="tripinfo_SX_7" vType="car9@SX_7" speedFactor="1.91" vaporized=""/>
    <tripinfo id="RX_30" depart="5.30" departLane="002_001_4_0" departPos="7.10" departSpeed="11.18" departDelay="0.30" arrival="41.30" arrivalLane="003_001_1_0" arrivalPos="200.00" arrivalSpeed="11.18" duration="36.00" routeLength="401.93" waitingTime="0.00" waitingCount="0" stopTime="0.00" timeLoss="-2.48" rerouteNo="1" devices="tripinfo_RX_30" vType="car7@RX_30" speedFactor="1.17" vaporized=""/>
    <tripinfo id="SX_17" depart="3.00" departLane="002_001_2_1" departPos="8.10" departSpeed="11.18" departDelay="0.00" arrival="41.50" arrivalLane="002_000_2_2" arrivalPos="200.00" arrivalSpeed="11.18" duration="38.50" routeLength="419.10" waitingTime="0.00" waitingCount="0" stopTime="0.00" timeLoss="-0.02" rerouteNo="1" devices="tripinfo_SX_17" vType="car8@SX_17" speedFactor="1.91" vaporized=""/>
    <tripinfo id="RX_32" depart="6.00" departLane="001_001_2_0" departPos="5.10" departSpeed="11.18" departDelay="0.00" arrival="42.20" arrivalLane="000_001_3_0" arrivalPos="200.00" arrivalSpeed="11.18" duration="36.20" routeLength="403.93" waitingTime="0.00" waitingCount="0" stopTime="0.00" timeLoss="-2.63" rerouteNo="1" devices="tripinfo_RX_32" vType="car5@RX_32" speedFactor="1.03" vaporized=""/>
    <tripinfo id="LX_20" depart="4.00" departLane="001_001_1_2" departPos="9.10" departSpeed="11.18" departDelay="0.00" arrival="42.60" arrivalLane="001_002_4_2" arrivalPos="200.00" arrivalSpeed="11.18" duration="38.60" routeLength="414.12" waitingTime="0.50" waitingCount="1" stopTime="0.00" timeLoss="-4528.85" rerouteNo="1" devices="tripinfo_LX_20" vType="car9@LX_20" speedFactor="1.47" vaporized=""/>
    <tripinfo id="LX_24" depart="4.00" departLane="002_001_3_2" departPos="6.10" departSpeed="11.18" departDelay="0.00" arrival="42.70" arrivalLane="002_000_2_2" arrivalPos="200.00" arrivalSpeed="11.18" duration="38.70" routeLength="417.12" waitingTime="0.40" waitingCount="1" stopTime="0.00" timeLoss="-4182.45" rerouteNo="1" devices="tripinfo_LX_24" vType="car6@LX_24" speedFactor="1.00" vaporized=""/>
    <tripinfo id="SX_28" depart="5.00" departLane="001_001_4_1" departPos="7.10" departSpeed="11.18" departDelay="0.00" arrival="44.20" arrivalLane="001_002_4_1" arrivalPos="200.00" arrivalSpeed="11.18" duration="39.20" routeLength="420.10" waitingTime="0.00" waitingCount="0" stopTime="0.00" timeLoss="-0.05" rerouteNo="1" devices="tripinfo_SX_28" vType="car7@SX_28" speedFactor="1.88" vaporized=""/>
    <tripinfo id="SX_22" depart="4.00" departLane="001_001_4_1" departPos="9.10" departSpeed="11.18" departDelay="0.00" arrival="44.60" arrivalLane="001_002_4_2" arrivalPos="200.00" arrivalSpeed="11.18" duration="40.60" routeLength="418.10" waitingTime="2.20" waitingCount="1" stopTime="0.00" timeLoss="-4526.48" rerouteNo="1" devices="tripinfo_SX_22" vType="car9@SX_22" speedFactor="1.00" vaporized=""/>
    <tripinfo id="SX_38" depart="7.00" departLane="001_001_4_1" departPos="6.10" departSpeed="11.18" departDelay="0.00" arrival="44.70" arrivalLane="001_002_4_0" arrivalPos="200.00" arrivalSpeed="11.18" duration="37.70" routeLength="421.10" waitingTime="0.00" waitingCount="0" stopTime="0.00" timeLoss="0.00" rerouteNo="1" devices="tripinfo_SX_38" vType="car6@SX_38" speedFactor="1.10" vaporized=""/>
    <tripinfo id="RX_50" depart="9.00" departLane="002_001_3_0" departPos="5.10" departSpeed="11.18" departDelay="0.00" arrival="45.20" arrivalLane="002_002_4_0" arrivalPos="200.00" arrivalSpeed="11.18" duration="36.20" routeLength="403.93" waitingTime="0.00" waitingCount="0" stopTime="0.00" timeLoss="-2.58" rerouteNo="1" devices="tripinfo_RX_50" vType="car5@RX_50" speedFactor="1.07" vaporized=""/>
    <tripinfo id="RX_52" depart="10.00" departLane="001_001_1_0" departPos="7.10" departSpeed="11.18" departDelay="0.00" arrival="46.00" arrivalLane="001_000_2_0" arrivalPos="200.00" arrivalSpeed="11.18" duration="36.00" routeLength="401.93" waitingTime="0.00" waitingCount="0" stopTime="0.00" timeLoss="-2.33" rerouteNo="1" devices="tripinfo_RX_52" vType="car7@RX_52" speedFactor="1.34" vaporized=""/>
    <tripinfo id="SX_23" depart="4.00" departLane="002_001_2_1" departPos="7.10" departSpeed="11.18" departDelay="0.00" arrival="46.40" arrivalLane="002_000_2_2" arrivalPos="200.00" arrivalSpeed="11.18" duration="42.40" routeLength="420.10" waitingTime="0.00" waitingCount="0" stopTime="0.00" timeLoss="0.63" rerouteNo="1" devices="tripinfo_SX_23" vType="car7@SX_23" speedFactor="1.30" vaporized=""/>
    <tripinfo id="LX_33" depart="6.00" departLane="001_001_4_2" departPos="8.10" departSpeed="11.18" departDelay="0.00" arrival="47.00" arrivalLane="000_001_3_2" arrivalPos="200.00" arrivalSpeed="11.18" duration="41.00" routeLength="415.11" waitingTime="1.70" waitingCount="2" stopTime="0.00" timeLoss="-4757.32" rerouteNo="1" devices="tripinfo_LX_33" vType="car8@LX_33" speedFactor="1.00" vaporized=""/>
    <tripinfo id="LX_35" depart="6.00" departLane="002_001_3_2" departPos="8.10" departSpeed="11.18" departDelay="0.00" arrival="47.50" arrivalLane="002_000_2_2" arrivalPos="200.00" arrivalSpeed="11.18" duration="41.50" routeLength="415.12" waitingTime="3.10" waitingCount="1" stopTime="0.00" timeLoss="-4060.81" rerouteNo="1" devices="tripinfo_LX_35" vType="car8@LX_35" speedFactor="1.18" vaporized=""/>
    <tripinfo id="RX_60" depart="12.00" departLane="001_001_1_0" departPos="7.10" departSpeed="11.18" departDelay="0.00" arrival="48.00" arrivalLane="001_000_2_0" arrivalPos="200.00" arrivalSpeed="11.18" duration="36.00" routeLength="401.93" waitingTime="0.00" waitingCount="0" stopTime="0.00" timeLoss="-2.43" rerouteNo="1" devices="tripinfo_RX_60" vType="car7@RX_60" speedFactor="1.22" vaporized=""/>
    <tripinfo id="LX_40" depart="7.50" departLane="002_001_3_2" departPos="9.10" departSpeed="11.18" departDelay="0.50" arrival="48.50" arrivalLane="002_000_2_2" arrivalPos="200.00" arrivalSpeed="11.18" duration="41.00" routeLength="414.12" waitingTime="2.80" waitingCount="1" stopTime="0.00" timeLoss="1.42" rerouteNo="1" devices="tripinfo_LX_40" vType="car9@LX_40" speedFactor="1.40" vaporized=""/>
    <tripinfo id="RX_69" depart="13.00" departLane="002_001_4_0" departPos="8.10" departSpeed="11.18" departDelay="0.00" arrival="48.90" arrivalLane="003_001_1_0" arrivalPos="200.00" arrivalSpeed="11.18" duration="35.90" routeLength="400.93" waitingTime="0.00" waitingCount="0" stopTime="0.00" timeLoss="-2.27" rerouteNo="1" devices="tripinfo_RX_69" vType="car8@RX_69" speedFactor="1.43" vaporized=""/>
    <tripinfo id="RX_66" depart="13.20" departLane="001_001_1_0" departPos="6.10" departSpeed="11.18" departDelay="0.20" arrival="49.30" arrivalLane="001_000_2_0" arrivalPos="200.00" arrivalSpeed="11.18" duration="36.10" routeLength="402.93" waitingTime="0.00" waitingCount="0" stopTime="0.00" timeLoss="-2.20" rerouteNo="1" devices="tripinfo_RX_66" vType="car6@RX_66" speedFactor="1.97" vaporized=""/>
    <tripinfo id="SX_63" depart="12.00" departLane="002_001_2_1" departPos="5.10" departSpeed="11.18" departDelay="0.00" arrival="49.80" arrivalLane="002_000_2_1" arrivalPos="200.00" arrivalSpeed="11.18" duration="37.80" routeLength="422.10" waitingTime="0.00" waitingCount="0" stopTime="0.00" timeLoss="0.00" rerouteNo="1" devices="tripinfo_SX_63" vType="car5@SX_63" speedFactor="1.91" vaporized=""/>
    <tripinfo id="RX_74" depart="14.00" departLane="002_001_3_0" departPos="7.10" departSpeed="11.18" departDelay="0.00" arrival="50.00" arrivalLane="002_002_4_0" arrivalPos="200.00" arrivalSpeed="11.18" duration="36.00" routeLength="401.93" waitingTime="0.00" waitingCount="0" stopTime="0.00" timeLoss="-2.21" rerouteNo="1" devices="tripinfo_RX_74" vType="car7@RX_74" speedFactor="1.65" vaporized=""/>
    <tripinfo id="LX_43" depart="8.00" departLane="001_001_4_2" departPos="9.10" departSpeed="11.18" departDelay="0.00" arrival="50.20" arrivalLane="000_001_3_2" arrivalPos="200.00" arrivalSpeed="11.18" duration="42.20" routeLength="414.11" waitingTime="2.20" waitingCount="3" stopTime="0.00" timeLoss="-4897.13" rerouteNo="1" devices="tripinfo_LX_43" vType="car9@LX_43" speedFactor="1.00" vaporized=""/>
    <tripinfo id="SX_51" depart="9.00" departLane="002_001_4_1" departPos="8.10" departSpeed="11.18" departDelay="0.00" arrival="50.30" arrivalLane="002_002_4_1" arrivalPos="200.00" arrivalSpeed="11.18" duration="41.30" routeLength="419.10" waitingTime="0.00" waitingCount="0" stopTime="0.00" timeLoss="-1.13" rerouteNo="1" devices="tripinfo_SX_51" vType="car8@SX_51" speedFactor="1.87" vaporized=""/>
    <tripinfo id="RX_76" depart="15.00" departLane="001_001_1_0" departPos="6.10" departSpeed="11.18" departDelay="0.00" arrival="51.10" arrivalLane="001_000_2_0" arrivalPos="200.00" arrivalSpeed="11.18" duration="36.10" routeLength="402.93" waitingTime="0.00" waitingCount="0" stopTime="0.00" timeLoss="-2.48" rerouteNo="1" devices="tripinfo_RX_76" vType="car6@RX_76" speedFactor="1.17" vaporized=""/>
    <tripinfo id="RX_81" depart="15.00" departLane="002_001_4_0" departPos="6.10" departSpeed="11.18" departDelay="0.00" arrival="51.40" arrivalLane="003_001_1_0" arrivalPos="200.00" arrivalSpeed="11.18" duration="36.40" routeLength="402.93" waitingTime="0.00" waitingCount="0" stopTime="0.00" timeLoss="-2.62" rerouteNo="1" devices="tripinfo_RX_81" vType="car6@RX_81" speedFactor="1.04" vaporized=""/>
    <tripinfo id="RX_83" depart="16.00" departLane="001_001_2_0" departPos="8.10" departSpeed="11.18" departDelay="0.00" arrival="51.90" arrivalLane="000_001_3_0" arrivalPos="200.00" arrivalSpeed="11.18" duration="35.90" routeLength="400.93" waitingTime="0.00" waitingCount="0" stopTime="0.00" timeLoss="-2.21" rerouteNo="1" devices="tripinfo_RX_83" vType="car8@RX_83" speedFactor="1.71" vaporized=""/>
    <tripinfo id="RX_86" depart="16.00" departLane="002_001_3_0" departPos="5.10" departSpeed="11.18" departDelay="0.00" arrival="52.20" arrivalLane="002_002_4_0" arrivalPos="200.00" arrivalSpeed="11.18" duration="36.20" routeLength="403.93" waitingTime="0.00" waitingCount="0" stopTime="0.00" timeLoss="-2.42" rerouteNo="1" devices="tripinfo_RX_86" vType="car5@RX_86" speedFactor="1.23" vaporized=""/>
    <tripinfo id="LX_44" depart="8.60" departLane="002_001_3_2" departPos="5.10" departSpeed="11.18" departDelay="0.60" arrival="52.80" arrivalLane="002_000_2_2" arrivalPos="200.00" arrivalSpeed="11.18" duration="44.20" routeLength="418.12" waitingTime="4.40" waitingCount="2" stopTime="0.00" timeLoss="-4131.87" rerouteNo="1" devices="tripinfo_LX_44" vType="car5@LX_44" speedFactor="1.00" vaporized=""/>
    <tripinfo id="LX_46" depart="9.00" departLane="001_001_1_2" departPos="9.10" departSpeed="11.18" departDelay="0.00" arrival="52.80" arrivalLane="001_002_4_2" arrivalPos="200.00" arrivalSpeed="11.18" duration="43.80" routeLength="414.12" waitingTime="4.80" waitingCount="2" stopTime="0.00" timeLoss="-3935.94" rerouteNo="1" devices="tripinfo_LX_46" vType="car9@LX_46" speedFactor="1.05" vaporized=""/>
    <tripinfo id="RX_89" depart="17.30" departLane="001_001_2_0" departPos="7.10" departSpeed="11.18" departDelay="0.30" arrival="53.30" arrivalLane="000_001_3_0" arrivalPos="200.00" arrivalSpeed="11.18" duration="36.00" routeLength="401.93" waitingTime="0.00" waitingCount="0" stopTime="0.00" timeLoss="-2.57" rerouteNo="1" devices="tripinfo_RX_89" vType="car7@RX_89" speedFactor="1.08" vaporized=""/>
    <tripinfo id="RX_88" depart="17.00" departLane="001_001_1_0" departPos="6.10" departSpeed="11.18" departDelay="0.00" arrival="53.40" arrivalLane="001_000_2_0" arrivalPos="200.00" arrivalSpeed="11.18" duration="36.40" routeLength="402.93" waitingTime="0.00" waitingCount="0" stopTime="0.00" timeLoss="-2.35" rerouteNo="1" devices="tripinfo_RX_88" vType="car6@RX_88" speedFactor="1.32" vaporized=""/>
    <tripinfo id="LX_55" depart="10.00" departLane="002_001_3_2" departPos="7.10" departSpeed="11.18" departDelay="0.00" arrival="53.50" arrivalLane="002_000_2_2" arrivalPos="200.00" arrivalSpeed="11.18" duration="43.50" routeLength="416.12" waitingTime="3.70" waitingCount="2" stopTime="0.00" timeLoss="3.87" rerouteNo="1" devices="tripinfo_LX_55" vType="car7@LX_55" speedFactor="1.30" vaporized=""/>
    <tripinfo id="SX_79" depart="15.00" departLane="002_001_2_1" departPos="6.10" departSpeed="11.18" departDelay="0.00" arrival="54.30" arrivalLane="002_000_2_1" arrivalPos="200.00" arrivalSpeed="11.18" duration="39.30" routeLength="421.10" waitingTime="0.00" waitingCount="0" stopTime="0.00" timeLoss="-0.05" rerouteNo="1" devices="tripinfo_SX_79" vType="car6@SX_79" speedFactor="1.96" vaporized=""/>
    <tripinfo id="SX_61" depart="12.00" departLane="001_001_2_1" departPos="6.10" departSpeed="11.18" departDelay="0.00" arrival="54.60" arrivalLane="001_000_2_1" arrivalPos="200.00" arrivalSpeed="11.18" duration="42.60" routeLength="421.10" waitingTime="0.00" waitingCount="0" stopTime="0.00" timeLoss="-0.69" rerouteNo="1" devices="tripinfo_SX_61" vType="car6@SX_61" speedFactor="1.17" vaporized=""/>
    <tripinfo id="SX_53" depart="10.00" departLane="001_001_4_1" departPos="8.10" departSpeed="11.18" departDelay="0.00" arrival="54.80" arrivalLane="001_002_4_2" arrivalPos="200.00" arrivalSpeed="11.18" duration="44.80" routeLength="419.10" waitingTime="4.50" waitingCount="3" stopTime="0.00" timeLoss="-4282.12" rerouteNo="1" devices="tripinfo_SX_53" vType="car8@SX_53" speedFactor="1.00" vaporized=""/>
    <tripinfo id="SX_65" depart="12.00" departLane="002_001_4_1" departPos="9.10" departSpeed="11.18" departDelay="0.00" arrival="55.10" arrivalLane="002_002_4_1" arrivalPos="200.00" arrivalSpeed="11.18" duration="43.10" routeLength="418.10" waitingTime="0.00" waitingCount="0" stopTime="0.00" timeLoss="-0.50" rerouteNo="1" devices="tripinfo_SX_65" vType="car9@SX_65" speedFactor="1.10" vaporized=""/>
    <tripinfo id="RX_104" depart="19.00" departLane="002_001_3_0" departPos="6.10" departSpeed="11.18" departDelay="0.00" arrival="55.10" arrivalLane="002_002_4_0" arrivalPos="200.00" arrivalSpeed="11.18" duration="36.10" routeLength="402.93" waitingTime="0.00" waitingCount="0" stopTime="0.00" timeLoss="-2.20" rerouteNo="1" devices="tripinfo_RX_104" vType="car6@RX_104" speedFactor="1.71" vaporized=""/>
    <tripinfo id="LX_62" depart="12.00" departLane="001_001_4_2" departPos="8.10" departSpeed="11.18" departDelay="0.00" arrival="55.40" arrivalLane="000_001_3_2" arrivalPos="200.00" arrivalSpeed="11.18" duration="43.40" routeLength="415.11" waitingTime="3.80" waitingCount="2" stopTime="0.00" timeLoss="3.89" rerouteNo="1" devices="tripinfo_LX_62" vType="car8@LX_62" speedFactor="1.92" vaporized=""/>
    <tripinfo id="SX_96" depart="18.00" departLane="001_001_4_1" departPos="9.10" departSpeed="11.18" departDelay="0.00" arrival="55.50" arrivalLane="001_002_4_1" arrivalPos="200.00" arrivalSpeed="11.18" duration="37.50" routeLength="418.10" waitingTime="0.00" waitingCount="0" stopTime="0.00" timeLoss="0.00" rerouteNo="1" devices="tripinfo_SX_96" vType="car9@SX_96" speedFactor="1.04" vaporized=""/>
    <tripinfo id="RX_107" depart="20.00" departLane="001_001_2_0" departPos="5.10" departSpeed="11.18" departDelay="0.00" arrival="56.20" arrivalLane="000_001_3_0" arrivalPos="200.00" arrivalSpeed="11.18" duration="36.20" routeLength="403.93" waitingTime="0.00" waitingCount="0" stopTime="0.00" timeLoss="-2.20" rerouteNo="1" devices="tripinfo_RX_107" vType="car5@RX_107" speedFactor="1.79" vaporized=""/>
    <tripinfo id="RX_110" depart="20.50" departLane="002_001_3_0" departPos="9.10" departSpeed="11.18" departDelay="0.50" arrival="56.30" arrivalLane="002_002_4_0" arrivalPos="200.00" arrivalSpeed="11.18" duration="35.80" routeLength="399.93" waitingTime="0.00" waitingCount="0" stopTime="0.00" timeLoss="-2.22" rerouteNo="1" devices="tripinfo_RX_110" vType="car9@RX_110" speedFactor="1.52" vaporized=""/>
    <tripinfo id="LX_72" depart="14.00" departLane="001_001_4_2" departPos="5.10" departSpeed="11.18" departDelay="0.00" arrival="56.50" arrivalLane="000_001_3_2" arrivalPos="200.00" arrivalSpeed="11.18" duration="42.50" routeLength="418.11" waitingTime="3.30" waitingCount="2" stopTime="0.00" timeLoss="2.57" rerouteNo="1" devices="tripinfo_LX_72" vType="car5@LX_72" speedFactor="1.14" vaporized=""/>
    <tripinfo id="SX_58" depart="11.00" departLane="002_001_2_1" departPos="5.10" departSpeed="11.18" departDelay="0.00" arrival="57.10" arrivalLane="002_000_2_2" arrivalPos="200.00" arrivalSpeed="11.18" duration="46.10" routeLength="422.10" waitingTime="0.00" waitingCount="0" stopTime="0.00" timeLoss="-2.98" rerouteNo="1" devices="tripinfo_SX_58" vType="car5@SX_58" speedFactor="1.43" vaporized=""/>
    <tripinfo id="RR_16" depart="3.00" departLane="001_001_4_0" departPos="6.10" departSpeed="11.18" departDelay="0.00" arrival="57.80" arrivalLane="002_000_2_0" arrivalPos="200.00" arrivalSpeed="11.18" duration="54.80" routeLength="611.96" waitingTime="0.00" waitingCount="0" stopTime="0.00" timeLoss="-3.23" rerouteNo="2" devices="tripinfo_RR_16" vType="car6@RR_16" speedFactor="1.00" vaporized=""/>
    <tripinfo id="RX_119" depart="22.00" departLane="002_001_3_0" departPos="8.10" departSpeed="11.18" departDelay="0.00" arrival="57.90" arrivalLane="002_002_4_0" arrivalPos="200.00" arrivalSpeed="11.18" duration="35.90" routeLength="400.93" waitingTime="0.00" waitingCount="0" stopTime="0.00" timeLoss="-2.21" rerouteNo="1" devices="tripinfo_RX_119" vType="car8@RX_119" speedFactor="1.83" vaporized=""/>
    <tripinfo id="LX_59" depart="11.50" departLane="002_001_3_2" departPos="9.10" departSpeed="11.18" departDelay="0.50" arrival="58.00" arrivalLane="002_000_2_2" arrivalPos="200.00" arrivalSpeed="11.18" duration="46.50" routeLength="414.12" waitingTime="5.80" waitingCount="3" stopTime="0.00" timeLoss="-4428.32" rerouteNo="1" devices="tripinfo_LX_59" vType="car9@LX_59" speedFactor="1.07" vaporized=""/>
    <tripinfo id="RX_121" depart="23.00" departLane="001_001_1_0" departPos="9.10" departSpeed="11.18" departDelay="0.00" arrival="58.80" arrivalLane="001_000_2_0" arrivalPos="200.00" arrivalSpeed="11.18" duration="35.80" routeLength="399.93" waitingTime="0.00" waitingCount="0" stopTime="0.00" timeLoss="-2.21" rerouteNo="1" devices="tripinfo_RX_121" vType="car9@RX_121" speedFactor="2.00" vaporized=""/>
    <tripinfo id="LX_70" depart="14.00" departLane="001_001_1_2" departPos="6.10" departSpeed="11.18" departDelay="0.00" arrival="58.90" arrivalLane="001_002_4_2" arrivalPos="200.00" arrivalSpeed="11.18" duration="44.90" routeLength="417.12" waitingTime="5.80" waitingCount="2" stopTime="0.00" timeLoss="-3967.32" rerouteNo="1" devices="tripinfo_LX_70" vType="car6@LX_70" speedFactor="1.88" vaporized=""/>
    <tripinfo id="LX_64" depart="12.60" departLane="002_001_3_2" departPos="5.10" departSpeed="11.18" departDelay="0.60" arrival="59.10" arrivalLane="002_000_2_2" arrivalPos="200.00" arrivalSpeed="11.18" duration="46.50" routeLength="418.12" waitingTime="5.30" waitingCount="3" stopTime="0.00" timeLoss="6.63" rerouteNo="1" devices="tripinfo_LX_64" vType="car5@LX_64" speedFactor="1.57" vaporized=""/>
    <tripinfo id="LX_68" depart="13.00" departLane="002_001_2_2" departPos="8.10" departSpeed="11.18" departDelay="0.00" arrival="59.50" arrivalLane="003_001_1_2" arrivalPos="200.00" arrivalSpeed="11.18" duration="46.50" routeLength="415.11" waitingTime="0.70" waitingCount="1" stopTime="0.00" timeLoss="-4892.13" rerouteNo="1" devices="tripinfo_LX_68" vType="car8@LX_68" speedFactor="1.38" vaporized=""/>
    <tripinfo id="SX_103" depart="19.00" departLane="002_001_2_1" departPos="8.10" departSpeed="11.18" departDelay="0.00" arrival="59.60" arrivalLane="002_000_2_1" arrivalPos="200.00" arrivalSpeed="11.18" duration="40.60" routeLength="419.10" waitingTime="0.00" waitingCount="0" stopTime="0.00" timeLoss="-0.18" rerouteNo="1" devices="tripinfo_SX_103" vType="car8@SX_103" speedFactor="1.05" vaporized=""/>
    <tripinfo id="SX_95" depart="18.00" departLane="001_001_2_1" departPos="7.10" departSpeed="11.18" departDelay="0.00" arrival="60.30" arrivalLane="001_000_2_1" arrivalPos="200.00" arrivalSpeed="11.18" duration="42.30" routeLength="420.10" waitingTime="0.00" waitingCount="0" stopTime="0.00" timeLoss="-0.34" rerouteNo="1" devices="tripinfo_SX_95" vType="car7@SX_95" speedFactor="1.15" vaporized=""/>
    <tripinfo id="RX_127" depart="24.40" departLane="001_001_1_0" departPos="8.10" departSpeed="11.18" departDelay="0.40" arrival="60.30" arrivalLane="001_000_2_0" arrivalPos="200.00" arrivalSpeed="11.18" duration="35.90" routeLength="400.93" waitingTime="0.00" waitingCount="0" stopTime="0.00" timeLoss="-2.21" rerouteNo="1" devices="tripinfo_RX_127" vType="car8@RX_127" speedFactor="1.56" vaporized=""/>
    <tripinfo id="SX_102" depart="19.50" departLane="001_001_4_1" departPos="9.10" departSpeed="11.18" departDelay="0.50" arrival="60.50" arrivalLane="001_002_4_1" arrivalPos="200.00" arrivalSpeed="11.18" duration="41.00" routeLength="418.10" waitingTime="0.00" waitingCount="0" stopTime="0.00" timeLoss="-0.24" rerouteNo="1" devices="tripinfo_SX_102" vType="car9@SX_102" speedFactor="1.00" vaporized=""/>
    <tripinfo id="SX_78" depart="15.00" departLane="001_001_4_1" departPos="6.10" departSpeed="11.18" departDelay="0.00" arrival="60.60" arrivalLane="001_002_4_2" arrivalPos="200.00" arrivalSpeed="11.18" duration="45.60" routeLength="421.10" waitingTime="4.40" waitingCount="2" stopTime="0.00" timeLoss="-4632.80" rerouteNo="1" devices="tripinfo_SX_78" vType="car6@SX_78" speedFactor="1.09" vaporized=""/>
    <tripinfo id="SR_0" depart="0.00" departLane="001_001_1_1" departPos="8.10" departSpeed="11.18" departDelay="0.00" arrival="60.90" arrivalLane="002_000_2_1" arrivalPos="200.00" arrivalSpeed="11.18" duration="60.90" routeLength="633.29" waitingTime="0.00" waitingCount="0" stopTime="0.00" timeLoss="-2.58" rerouteNo="2" devices="tripinfo_SR_0" vType="car8@SR_0" speedFactor="1.60" vaporized=""/>
    <tripinfo id="LX_84" depart="16.50" departLane="001_001_4_2" departPos="6.10" departSpeed="11.18" departDelay="0.50" arrival="61.10" arrivalLane="000_001_3_2" arrivalPos="200.00" arrivalSpeed="11.18" duration="44.60" routeLength="417.11" waitingTime="4.20" waitingCount="2" stopTime="0.00" timeLoss="4.79" rerouteNo="1" devices="tripinfo_LX_84" vType="car6@LX_84" speedFactor="1.00" vaporized=""/>
    <tripinfo id="RX_133" depart="25.00" departLane="001_001_2_0" departPos="5.10" departSpeed="11.18" departDelay="0.00" arrival="61.20" arrivalLane="000_001_3_0" arrivalPos="200.00" arrivalSpeed="11.18" duration="36.20" routeLength="403.93" waitingTime="0.00" waitingCount="0" stopTime="0.00" timeLoss="-2.36" rerouteNo="1" devices="tripinfo_RX_133" vType="car5@RX_133" speedFactor="1.30" vaporized=""/>