<?xml version="1.0" encoding="UTF-8"?>

<!-- generated on 04/24/21 19:17:29 by Eclipse SUMO GUI Version 1.8.0
<configuration xmlns:xsi="http://www.w3.org/2001/XMLSchema-instance" xsi:noNamespaceSchemaLocation="http://sumo.dlr.de/xsd/sumoConfiguration.xsd">

    <input>
        <net-file value="data/lane3.net.xml"/>
        <route-files value="data/icacc+.rou.xml"/>
        <additional-files value="data/icacc+.det.xml"/>
    </input>

    <output>
        <tripinfo-output value="tripinfo.xml"/>
    </output>

    <time>
        <begin value="0"/>
        <step-length value="0.1"/>
    </time>

    <processing>
        <collision.mingap-factor value="0"/>
        <time-to-teleport value="-1"/>
        <lanechange.duration value="0.5"/>
    </processing>

    <report>
        <verbose value="true"/>
        <no-step-log value="true"/>
    </report>

    <traci_server>
        <remote-port value="4645"/>
    </traci_server>

    <gui_only>
        <start value="true"/>
        <tracker-interval value="0.1"/>
    </gui_only>

</configuration>
-->

<tripinfos xmlns:xsi="http://www.w3.org/2001/XMLSchema-instance" xsi:noNamespaceSchemaLocation="http://sumo.dlr.de/xsd/tripinfo_file.xsd">
    <tripinfo id="S_8" depart="2.00" departLane="3_1" departPos="9.10" departSpeed="11.18" departDelay="0.00" arrival="39.00" arrivalLane="-1_1" arrivalPos="200.00" arrivalSpeed="11.18" duration="37.00" routeLength="413.30" waitingTime="0.00" waitingCount="0" stopTime="0.00" timeLoss="0.00" rerouteNo="0" devices="tripinfo_S_8" vType="car9@S_8" speedFactor="0.94" vaporized=""/>
    <tripinfo id="L_9" depart="2.00" departLane="4_2" departPos="6.10" departSpeed="11.18" departDelay="0.00" arrival="39.80" arrivalLane="-1_2" arrivalPos="200.00" arrivalSpeed="11.18" duration="37.80" routeLength="413.45" waitingTime="0.00" waitingCount="0" stopTime="0.00" timeLoss="-2.65" rerouteNo="0" devices="tripinfo_L_9" vType="car6@L_9" speedFactor="0.86" vaporized=""/>
    <tripinfo id="R_0" depart="0.00" departLane="1_0" departPos="7.10" departSpeed="11.18" departDelay="0.00" arrival="41.20" arrivalLane="-4_0" arrivalPos="200.00" arrivalSpeed="11.18" duration="41.20" routeLength="398.06" waitingTime="4.60" waitingCount="1" stopTime="0.00" timeLoss="-4298.13" rerouteNo="0" devices="tripinfo_R_0" vType="car7@R_0" speedFactor="1.06" vaporized=""/>
    <tripinfo id="R_10" depart="3.90" departLane="1_1" departPos="8.10" departSpeed="11.18" departDelay="0.90" arrival="42.30" arrivalLane="-4_0" arrivalPos="200.00" arrivalSpeed="11.18" duration="38.40" routeLength="397.06" waitingTime="1.40" waitingCount="1" stopTime="0.00" timeLoss="0.00" rerouteNo="0" devices="tripinfo_R_10" vType="car8@R_10" speedFactor="1.09" vaporized=""/>
    <tripinfo id="S_1" depart="0.00" departLane="3_2" departPos="6.10" departSpeed="11.18" departDelay="0.00" arrival="43.50" arrivalLane="-1_2" arrivalPos="200.00" arrivalSpeed="11.18" duration="43.50" routeLength="416.30" waitingTime="5.30" waitingCount="1" stopTime="0.00" timeLoss="-4180.09" rerouteNo="0" devices="tripinfo_S_1" vType="car6@S_1" speedFactor="0.94" vaporized=""/>
    <tripinfo id="R_2" depart="0.00" departLane="4_2" departPos="8.10" departSpeed="11.18" departDelay="0.00" arrival="44.00" arrivalLane="-3_0" arrivalPos="200.00" arrivalSpeed="11.18" duration="44.00" routeLength="397.06" waitingTime="7.50" waitingCount="1" stopTime="0.00" timeLoss="-4408.20" rerouteNo="0" devices="tripinfo_R_2" vType="car8@R_2" speedFactor="1.01" vaporized=""/>
    <tripinfo id="L_3" depart="1.00" departLane="1_1" departPos="9.10" departSpeed="11.18" departDelay="0.00" arrival="44.80" arrivalLane="-2_1" arrivalPos="200.00" arrivalSpeed="11.18" duration="43.80" routeLength="415.34" waitingTime="5.40" waitingCount="1" stopTime="0.00" timeLoss="-4528.61" rerouteNo="0" devices="tripinfo_L_3" vType="car9@L_3" speedFactor="1.08" vaporized=""/>
    <tripinfo id="S_20" depart="8.00" departLane="1_0" departPos="8.10" departSpeed="11.18" departDelay="0.00" arrival="45.50" arrivalLane="-3_1" arrivalPos="200.00" arrivalSpeed="11.18" duration="37.50" routeLength="414.30" waitingTime="0.00" waitingCount="0" stopTime="0.00" timeLoss="0.05" rerouteNo="0" devices="tripinfo_S_20" vType="car8@S_20" speedFactor="1.02" vaporized=""/>
    <tripinfo id="L_7" depart="2.50" departLane="2_0" departPos="9.10" departSpeed="11.18" departDelay="0.50" arrival="46.50" arrivalLane="-3_2" arrivalPos="200.00" arrivalSpeed="11.18" duration="44.00" routeLength="410.45" waitingTime="6.10" waitingCount="1" stopTime="0.00" timeLoss="-4529.02" rerouteNo="0" devices="tripinfo_L_7" vType="car9@L_7" speedFactor="0.89" vaporized=""/>
    <tripinfo id="L_6" depart="2.00" departLane="1_0" departPos="9.10" departSpeed="11.18" departDelay="0.00" arrival="47.20" arrivalLane="-2_2" arrivalPos="200.00" arrivalSpeed="11.18" duration="45.20" routeLength="410.45" waitingTime="6.50" waitingCount="1" stopTime="0.00" timeLoss="-4599.96" rerouteNo="0" devices="tripinfo_L_6" vType="car9@L_6" speedFactor="1.05" vaporized=""/>
    <tripinfo id="L_14" depart="5.00" departLane="4_2" departPos="5.10" departSpeed="11.18" departDelay="0.00" arrival="47.90" arrivalLane="-1_2" arrivalPos="200.00" arrivalSpeed="11.18" duration="42.90" routeLength="414.45" waitingTime="4.70" waitingCount="1" stopTime="0.00" timeLoss="-4061.00" rerouteNo="0" devices="tripinfo_L_14" vType="car5@L_14" speedFactor="0.99" vaporized=""/>
    <tripinfo id="R_4" depart="1.00" departLane="2_1" departPos="8.10" departSpeed="11.18" departDelay="0.00" arrival="49.50" arrivalLane="-1_0" arrivalPos="200.00" arrivalSpeed="11.18" duration="48.50" routeLength="397.06" waitingTime="12.00" waitingCount="1" stopTime="0.00" timeLoss="-4408.18" rerouteNo="0" devices="tripinfo_R_4" vType="car8@R_4" speedFactor="1.03" vaporized=""/>
    <tripinfo id="L_15" depart="6.00" departLane="2_2" departPos="6.10" departSpeed="11.18" departDelay="0.00" arrival="50.60" arrivalLane="-3_2" arrivalPos="200.00" arrivalSpeed="11.18" duration="44.60" routeLength="413.45" waitingTime="5.20" waitingCount="2" stopTime="0.00" timeLoss="-4709.34" rerouteNo="0" devices="tripinfo_L_15" vType="car6@L_15" speedFactor="0.93" vaporized=""/>
    <tripinfo id="R_36" depart="14.00" departLane="1_1" departPos="5.10" departSpeed="11.18" departDelay="0.00" arrival="51.40" arrivalLane="-4_0" arrivalPos="200.00" arrivalSpeed="11.18" duration="37.40" routeLength="400.06" waitingTime="0.00" waitingCount="0" stopTime="0.00" timeLoss="-2.75" rerouteNo="0" devices="tripinfo_R_36" vType="car5@R_36" speedFactor="0.97" vaporized=""/>
    <tripinfo id="S_23" depart="9.00" departLane="3_1" departPos="7.10" departSpeed="11.18" departDelay="0.00" arrival="51.80" arrivalLane="-1_1" arrivalPos="200.00" arrivalSpeed="11.18" duration="42.80" routeLength="415.30" waitingTime="0.00" waitingCount="0" stopTime="0.00" timeLoss="-0.95" rerouteNo="0" devices="tripinfo_S_23" vType="car7@S_23" speedFactor="0.89" vaporized=""/>
    <tripinfo id="S_12" depart="5.10" departLane="1_0" departPos="6.10" departSpeed="11.18" departDelay="0.10" arrival="52.30" arrivalLane="-3_2" arrivalPos="200.00" arrivalSpeed="11.18" duration="47.20" routeLength="416.30" waitingTime="7.70" waitingCount="2" stopTime="0.00" timeLoss="-4823.24" rerouteNo="0" devices="tripinfo_S_12" vType="car6@S_12" speedFactor="1.05" vaporized=""/>
    <tripinfo id="S_17" depart="7.00" departLane="1_2" departPos="9.10" departSpeed="11.18" departDelay="0.00" arrival="53.10" arrivalLane="-3_2" arrivalPos="200.00" arrivalSpeed="11.18" duration="46.10" routeLength="413.30" waitingTime="6.90" waitingCount="2" stopTime="0.00" timeLoss="9.09" rerouteNo="0" devices="tripinfo_S_17" vType="car9@S_17" speedFactor="0.94" vaporized=""/>
    <tripinfo id="S_42" depart="16.00" departLane="1_0" departPos="6.10" departSpeed="11.18" departDelay="0.00" arrival="53.60" arrivalLane="-3_0" arrivalPos="200.00" arrivalSpeed="11.18" duration="37.60" routeLength="416.30" waitingTime="0.00" waitingCount="0" stopTime="0.00" timeLoss="-0.05" rerouteNo="0" devices="tripinfo_S_42" vType="car6@S_42" speedFactor="1.09" vaporized=""/>
    <tripinfo id="L_26" depart="11.00" departLane="1_0" departPos="7.10" departSpeed="11.18" departDelay="0.00" arrival="54.30" arrivalLane="-2_2" arrivalPos="200.00" arrivalSpeed="11.18" duration="43.30" routeLength="412.45" waitingTime="3.90" waitingCount="2" stopTime="0.00" timeLoss="3.41" rerouteNo="0" devices="tripinfo_L_26" vType="car7@L_26" speedFactor="0.92" vaporized=""/>
    <tripinfo id="L_13" depart="5.00" departLane="3_2" departPos="7.10" departSpeed="11.18" departDelay="0.00" arrival="55.40" arrivalLane="-4_2" arrivalPos="200.00" arrivalSpeed="11.18" duration="50.40" routeLength="412.45" waitingTime="11.10" waitingCount="2" stopTime="0.00" timeLoss="-4977.66" rerouteNo="0" devices="tripinfo_L_13" vType="car7@L_13" speedFactor="1.12" vaporized=""/>
    <tripinfo id="R_11" depart="3.00" departLane="2_0" departPos="8.10" departSpeed="11.18" departDelay="0.00" arrival="55.70" arrivalLane="-1_0" arrivalPos="200.00" arrivalSpeed="11.18" duration="52.70" routeLength="397.06" waitingTime="15.10" waitingCount="2" stopTime="0.00" timeLoss="-4810.58" rerouteNo="0" devices="tripinfo_R_11" vType="car8@R_11" speedFactor="1.03" vaporized=""/>
    <tripinfo id="R_50" depart="19.90" departLane="1_1" departPos="8.10" departSpeed="11.18" departDelay="0.90" arrival="57.60" arrivalLane="-4_0" arrivalPos="200.00" arrivalSpeed="11.18" duration="37.70" routeLength="397.06" waitingTime="0.00" waitingCount="0" stopTime="0.00" timeLoss="-2.92" rerouteNo="0" devices="tripinfo_R_50" vType="car8@R_50" speedFactor="0.85" vaporized=""/>
    <tripinfo id="R_22" depart="9.10" departLane="2_2" departPos="5.10" departSpeed="11.18" departDelay="0.10" arrival="58.60" arrivalLane="-1_0" arrivalPos="200.00" arrivalSpeed="11.18" duration="49.50" routeLength="400.06" waitingTime="11.00" waitingCount="3" stopTime="0.00" timeLoss="10.96" rerouteNo="0" devices="tripinfo_R_22" vType="car5@R_22" speedFactor="0.98" vaporized=""/>
    <tripinfo id="L_21" depart="8.00" departLane="2_2" departPos="7.10" departSpeed="11.18" departDelay="0.00" arrival="58.70" arrivalLane="-3_2" arrivalPos="200.00" arrivalSpeed="11.18" duration="50.70" routeLength="412.45" waitingTime="10.60" waitingCount="3" stopTime="0.00" timeLoss="-3992.95" rerouteNo="0" devices="tripinfo_L_21" vType="car7@L_21" speedFactor="1.01" vaporized=""/>
    <tripinfo id="S_18" depart="7.00" departLane="2_1" departPos="7.10" departSpeed="11.18" departDelay="0.00" arrival="59.20" arrivalLane="-4_0" arrivalPos="200.00" arrivalSpeed="11.18" duration="52.20" routeLength="415.30" waitingTime="12.20" waitingCount="3" stopTime="0.00" timeLoss="-4467.55" rerouteNo="0" devices="tripinfo_S_18" vType="car7@S_18" speedFactor="0.94" vaporized=""/>
    <tripinfo id="L_27" depart="11.00" departLane="2_0" departPos="7.10" departSpeed="11.18" departDelay="0.00" arrival="59.60" arrivalLane="-3_2" arrivalPos="200.00" arrivalSpeed="11.18" duration="48.60" routeLength="412.45" waitingTime="8.60" waitingCount="2" stopTime="0.00" timeLoss="9.09" rerouteNo="0" devices="tripinfo_L_27" vType="car7@L_27" speedFactor="0.95" vaporized=""/>
    <tripinfo id="S_24" depart="9.00" departLane="4_2" departPos="7.10" departSpeed="11.18" departDelay="0.00" arrival="60.60" arrivalLane="-2_2" arrivalPos="200.00" arrivalSpeed="11.18" duration="51.60" routeLength="415.30" waitingTime="12.10" waitingCount="2" stopTime="0.00" timeLoss="-4760.32" rerouteNo="0" devices="tripinfo_S_24" vType="car7@S_24" speedFactor="0.83" vaporized=""/>
    <tripinfo id="S_30" depart="12.00" departLane="2_0" departPos="6.10" departSpeed="11.18" departDelay="0.00" arrival="60.70" arrivalLane="-4_2" arrivalPos="200.00" arrivalSpeed="11.18" duration="48.70" routeLength="416.30" waitingTime="8.60" waitingCount="2" stopTime="0.00" timeLoss="11.24" rerouteNo="0" devices="tripinfo_S_30" vType="car6@S_30" speedFactor="1.18" vaporized=""/>
    <tripinfo id="S_45" depart="17.00" departLane="2_1" departPos="5.10" departSpeed="11.18" departDelay="0.00" arrival="61.50" arrivalLane="-4_1" arrivalPos="200.00" arrivalSpeed="11.18" duration="44.50" routeLength="417.30" waitingTime="6.20" waitingCount="1" stopTime="0.00" timeLoss="-4058.72" rerouteNo="0" devices="tripinfo_S_45" vType="car5@S_45" speedFactor="1.09" vaporized=""/>
    <tripinfo id="S_5" depart="1.00" departLane="4_1" departPos="6.10" departSpeed="11.18" departDelay="0.00" arrival="62.70" arrivalLane="-2_0" arrivalPos="200.00" arrivalSpeed="11.18" duration="61.70" routeLength="416.30" waitingTime="21.90" waitingCount="2" stopTime="0.00" timeLoss="-4817.99" rerouteNo="0" devices="tripinfo_S_5" vType="car6@S_5" speedFactor="0.83" vaporized=""/>
    <tripinfo id="L_29" depart="11.00" departLane="4_1" departPos="5.10" departSpeed="11.18" departDelay="0.00" arrival="63.50" arrivalLane="-1_2" arrivalPos="200.00" arrivalSpeed="11.18" duration="52.50" routeLength="414.45" waitingTime="11.90" waitingCount="2" stopTime="0.00" timeLoss="-4688.97" rerouteNo="0" devices="tripinfo_L_29" vType="car5@L_29" speedFactor="0.93" vaporized=""/>
    <tripinfo id="S_35" depart="13.00" departLane="4_1" departPos="6.10" departSpeed="11.18" departDelay="0.00" arrival="63.50" arrivalLane="-2_0" arrivalPos="200.00" arrivalSpeed="11.18" duration="50.50" routeLength="416.30" waitingTime="12.10" waitingCount="1" stopTime="0.00" timeLoss="13.21" rerouteNo="0" devices="tripinfo_S_35" vType="car6@S_35" speedFactor="1.02" vaporized=""/>
    <tripinfo id="R_47" depart="17.10" departLane="4_2" departPos="8.10" departSpeed="11.18" departDelay="0.10" arrival="63.50" arrivalLane="-3_0" arrivalPos="200.00" arrivalSpeed="11.18" duration="46.40" routeLength="397.06" waitingTime="7.80" waitingCount="1" stopTime="0.00" timeLoss="5.30" rerouteNo="0" devices="tripinfo_R_47" vType="car8@R_47" speedFactor="0.90" vaporized=""/>
    <tripinfo id="L_37" depart="14.00" departLane="2_1" departPos="8.10" departSpeed="11.18" departDelay="0.00" arrival="63.90" arrivalLane="-3_2" arrivalPos="200.00" arrivalSpeed="11.18" duration="49.90" routeLength="411.45" waitingTime="9.80" waitingCount="3" stopTime="0.00" timeLoss="-4063.61" rerouteNo="0" devices="tripinfo_L_37" vType="car8@L_37" speedFactor="1.18" vaporized=""/>
    <tripinfo id="L_38" depart="14.20" departLane="4_0" departPos="6.10" departSpeed="11.18" departDelay="0.20" arrival="64.30" arrivalLane="-1_2" arrivalPos="200.00" arrivalSpeed="11.18" duration="50.10" routeLength="413.45" waitingTime="10.80" waitingCount="2" stopTime="0.00" timeLoss="10.71" rerouteNo="0" devices="tripinfo_L_38" vType="car6@L_38" speedFactor="1.10" vaporized=""/>
    <tripinfo id="R_58" depart="22.00" departLane="3_0" departPos="6.10" departSpeed="11.18" departDelay="0.00" arrival="64.70" arrivalLane="-2_0" arrivalPos="200.00" arrivalSpeed="11.18" duration="42.70" routeLength="399.06" waitingTime="6.00" waitingCount="1" stopTime="0.00" timeLoss="-4182.67" rerouteNo="0" devices="tripinfo_R_58" vType="car6@R_58" speedFactor="1.02" vaporized=""/>
    <tripinfo id="S_41" depart="15.70" departLane="4_2" departPos="9.10" departSpeed="11.18" departDelay="0.70" arrival="65.20" arrivalLane="-2_2" arrivalPos="200.00" arrivalSpeed="11.18" duration="49.50" routeLength="413.30" waitingTime="10.10" waitingCount="2" stopTime="0.00" timeLoss="12.38" rerouteNo="0" devices="tripinfo_S_41" vType="car9@S_41" speedFactor="0.96" vaporized=""/>
    <tripinfo id="R_52" depart="20.00" departLane="1_2" departPos="5.10" departSpeed="11.18" departDelay="0.00" arrival="65.20" arrivalLane="-4_0" arrivalPos="200.00" arrivalSpeed="11.18" duration="45.20" routeLength="400.06" waitingTime="5.70" waitingCount="1" stopTime="0.00" timeLoss="-4757.59" rerouteNo="0" devices="tripinfo_R_52" vType="car5@R_52" speedFactor="1.02" vaporized=""/>
    <tripinfo id="S_43" depart="16.00" departLane="4_1" departPos="9.10" departSpeed="11.18" departDelay="0.00" arrival="65.90" arrivalLane="-2_1" arrivalPos="200.00" arrivalSpeed="11.18" duration="49.90" routeLength="413.30" waitingTime="11.90" waitingCount="1" stopTime="0.00" timeLoss="-4526.49" rerouteNo="0" devices="tripinfo_S_43" vType="car9@S_43" speedFactor="1.04" vaporized=""/>
    <tripinfo id="S_48" depart="18.50" departLane="1_2" departPos="8.10" departSpeed="11.18" departDelay="0.50" arrival="66.50" arrivalLane="-3_1" arrivalPos="200.00" arrivalSpeed="11.18" duration="48.00" routeLength="414.30" waitingTime="10.00" waitingCount="1" stopTime="0.00" timeLoss="-4405.61" rerouteNo="0" devices="tripinfo_S_48" vType="car8@S_48" speedFactor="0.88" vaporized=""/>
    <tripinfo id="L_32" depart="13.00" departLane="1_0" departPos="8.10" departSpeed="11.18" departDelay="0.00" arrival="66.80" arrivalLane="-2_2" arrivalPos="200.00" arrivalSpeed="11.18" duration="53.80" routeLength="411.45" waitingTime="13.70" waitingCount="2" stopTime="0.00" timeLoss="-4161.09" rerouteNo="0" devices="tripinfo_L_32" vType="car8@L_32" speedFactor="1.01" vaporized=""/>
    <tripinfo id="L_16" depart="6.20" departLane="3_2" departPos="6.10" departSpeed="11.18" departDelay="0.20" arrival="68.70" arrivalLane="-4_2" arrivalPos="200.00" arrivalSpeed="11.18" duration="62.50" routeLength="413.45" waitingTime="21.80" waitingCount="3" stopTime="0.00" timeLoss="-4695.16" rerouteNo="0" devices="tripinfo_L_16" vType="car6@L_16" speedFactor="0.88" vaporized=""/>
    <tripinfo id="R_70" depart="27.00" departLane="1_1" departPos="7.10" departSpeed="11.18" departDelay="0.00" arrival="69.20" arrivalLane="-4_0" arrivalPos="200.00" arrivalSpeed="11.18" duration="42.20" routeLength="398.06" waitingTime="4.20" waitingCount="2" stopTime="0.00" timeLoss="-4762.20" rerouteNo="0" devices="tripinfo_R_70" vType="car7@R_70" speedFactor="1.02" vaporized=""/>
    <tripinfo id="L_39" depart="15.00" departLane="1_2" departPos="9.10" departSpeed="11.18" departDelay="0.00" arrival="69.90" arrivalLane="-2_2" arrivalPos="200.00" arrivalSpeed="11.18" duration="54.90" routeLength="410.45" waitingTime="15.10" waitingCount="3" stopTime="0.00" timeLoss="-4161.47" rerouteNo="0" devices="tripinfo_L_39" vType="car9@L_39" speedFactor="0.90" vaporized=""/>
    <tripinfo id="R_77" depart="30.00" departLane="1_2" departPos="5.10" departSpeed="11.18" departDelay="0.00" arrival="70.20" arrivalLane="-4_0" arrivalPos="200.00" arrivalSpeed="11.18" duration="40.20" routeLength="400.06" waitingTime="2.20" waitingCount="1" stopTime="0.00" timeLoss="1.46" rerouteNo="0" devices="tripinfo_R_77" vType="car5@R_77" speedFactor="0.98" vaporized=""/>
    <tripinfo id="R_80" depart="31.00" departLane="1_1" departPos="6.10" departSpeed="11.18" departDelay="0.00" arrival="71.00" arrivalLane="-4_0" arrivalPos="200.00" arrivalSpeed="11.18" duration="40.00" routeLength="399.06" waitingTime="2.20" waitingCount="1" stopTime="0.00" timeLoss="1.39" rerouteNo="0" devices="tripinfo_R_80" vType="car6@R_80" speedFactor="1.03" vaporized=""/>
    <tripinfo id="R_59" depart="22.00" departLane="4_1" departPos="7.10" departSpeed="11.18" departDelay="0.00" arrival="71.30" arrivalLane="-3_0" arrivalPos="200.00" arrivalSpeed="11.18" duration="49.30" routeLength="398.06" waitingTime="10.90" waitingCount="2" stopTime="0.00" timeLoss="10.97" rerouteNo="0" devices="tripinfo_R_59" vType="car7@R_59" speedFactor="0.97" vaporized=""/>
    <tripinfo id="R_84" depart="33.00" departLane="1_1" departPos="5.10" departSpeed="11.18" departDelay="0.00" arrival="71.90" arrivalLane="-4_0" arrivalPos="200.00" arrivalSpeed="11.18" duration="38.90" routeLength="400.06" waitingTime="1.40" waitingCount="1" stopTime="0.00" timeLoss="0.32" rerouteNo="0" devices="tripinfo_R_84" vType="car5@R_84" speedFactor="1.15" vaporized=""/>
    <tripinfo id="S_40" depart="15.00" departLane="3_0" departPos="5.10" departSpeed="11.18" departDelay="0.00" arrival="72.00" arrivalLane="-1_1" arrivalPos="200.00" arrivalSpeed="11.18" duration="57.00" routeLength="417.30" waitingTime="15.50" waitingCount="5" stopTime="0.00" timeLoss="-4876.28" rerouteNo="0" devices="tripinfo_S_40" vType="car5@S_40" speedFactor="1.03" vaporized=""/>
    <tripinfo id="S_49" depart="20.60" departLane="4_0" departPos="6.10" departSpeed="11.18" departDelay="2.60" arrival="72.00" arrivalLane="-2_0" arrivalPos="200.00" arrivalSpeed="11.18" duration="51.40" routeLength="416.30" waitingTime="11.40" waitingCount="2" stopTime="0.00" timeLoss="-4500.00" rerouteNo="0" devices="tripinfo_S_49" vType="car6@S_49" speedFactor="0.85" vaporized=""/>
    <tripinfo id="L_55" depart="20.00" departLane="4_2" departPos="9.10" departSpeed="11.18" departDelay="0.00" arrival="72.20" arrivalLane="-1_2" arrivalPos="200.00" arrivalSpeed="11.18" duration="52.20" routeLength="410.45" waitingTime="12.20" waitingCount="3" stopTime="0.00" timeLoss="-4400.43" rerouteNo="0" devices="tripinfo_L_55" vType="car9@L_55" speedFactor="1.00" vaporized=""/>
    <tripinfo id="R_67" depart="25.80" departLane="4_2" departPos="9.10" departSpeed="11.18" departDelay="0.80" arrival="72.20" arrivalLane="-3_0" arrivalPos="200.00" arrivalSpeed="11.18" duration="46.40" routeLength="396.06" waitingTime="8.30" waitingCount="2" stopTime="0.00" timeLoss="8.16" rerouteNo="0" devices="tripinfo_R_67" vType="car9@R_67" speedFactor="0.91" vaporized=""/>
    <tripinfo id="L_51" depart="19.00" departLane="2_0" departPos="5.10" departSpeed="11.18" departDelay="0.00" arrival="73.40" arrivalLane="-3_2" arrivalPos="200.00" arrivalSpeed="11.18" duration="54.40" routeLength="414.45" waitingTime="14.10" waitingCount="3" stopTime="0.00" timeLoss="-4648.37" rerouteNo="0" devices="tripinfo_L_51" vType="car5@L_51" speedFactor="1.17" vaporized=""/>
    <tripinfo id="L_61" depart="23.00" departLane="4_1" departPos="8.10" departSpeed="11.18" departDelay="0.00" arrival="73.40" arrivalLane="-1_2" arrivalPos="200.00" arrivalSpeed="11.18" duration="50.40" routeLength="411.45" waitingTime="10.30" waitingCount="3" stopTime="0.00" timeLoss="11.13" rerouteNo="0" devices="tripinfo_L_61" vType="car8@L_61" speedFactor="1.12" vaporized=""/>
    <tripinfo id="R_76" depart="29.90" departLane="4_2" departPos="6.10" departSpeed="11.18" departDelay="0.90" arrival="73.40" arrivalLane="-3_0" arrivalPos="200.00" arrivalSpeed="11.18" duration="43.50" routeLength="399.06" waitingTime="4.20" waitingCount="1" stopTime="0.00" timeLoss="4.94" rerouteNo="0" devices="tripinfo_R_76" vType="car6@R_76" speedFactor="1.03" vaporized=""/>
    <tripinfo id="S_33" depart="13.00" departLane="2_0" departPos="7.10" departSpeed="11.18" departDelay="0.00" arrival="77.00" arrivalLane="-4_0" arrivalPos="200.00" arrivalSpeed="11.18" duration="64.00" routeLength="415.30" waitingTime="23.30" waitingCount="4" stopTime="0.00" timeLoss="-3889.39" rerouteNo="0" devices="tripinfo_S_33" vType="car7@S_33" speedFactor="1.17" vaporized=""/>
    <tripinfo id="S_72" depart="31.40" departLane="2_0" departPos="9.10" departSpeed="11.18" departDelay="3.40" arrival="77.50" arrivalLane="-4_1" arrivalPos="200.00" arrivalSpeed="11.18" duration="46.10" routeLength="413.30" waitingTime="8.10" waitingCount="1" stopTime="0.00" timeLoss="-4526.49" rerouteNo="0" devices="tripinfo_S_72" vType="car9@S_72" speedFactor="0.94" vaporized=""/>
    <tripinfo id="L_19" depart="7.70" departLane="3_2" departPos="9.10" departSpeed="11.18" departDelay="0.70" arrival="77.60" arrivalLane="-4_2" arrivalPos="200.00" arrivalSpeed="11.18" duration="69.90" routeLength="410.45" waitingTime="28.60" waitingCount="4" stopTime="0.00" timeLoss="-4796.02" rerouteNo="0" devices="tripinfo_L_19" vType="car9@L_19" speedFactor="1.16" vaporized=""/>
    <tripinfo id="R_94" depart="36.00" departLane="4_0" departPos="5.10" departSpeed="11.18" departDelay="0.00" arrival="78.50" arrivalLane="-3_0" arrivalPos="200.00" arrivalSpeed="11.18" duration="42.50" routeLength="400.06" waitingTime="4.30" waitingCount="2" stopTime="0.00" timeLoss="-4697.60" rerouteNo="0" devices="tripinfo_R_94" vType="car5@R_94" speedFactor="1.09" vaporized=""/>
    <tripinfo id="L_28" depart="11.00" departLane="3_0" departPos="6.10" departSpeed="11.18" departDelay="0.00" arrival="78.80" arrivalLane="-4_2" arrivalPos="200.00" arrivalSpeed="11.18" duration="67.80" routeLength="413.45" waitingTime="27.50" waitingCount="3" stopTime="0.00" timeLoss="28.33" rerouteNo="0" devices="tripinfo_L_28" vType="car6@L_28" speedFactor="1.13" vaporized=""/>
    <tripinfo id="L_62" depart="24.30" departLane="2_1" departPos="9.10" departSpeed="11.18" departDelay="0.30" arrival="79.20" arrivalLane="-3_2" arrivalPos="200.00" arrivalSpeed="11.18" duration="54.90" routeLength="410.45" waitingTime="13.80" waitingCount="5" stopTime="0.00" timeLoss="-4697.45" rerouteNo="0" devices="tripinfo_L_62" vType="car9@L_62" speedFactor="1.02" vaporized=""/>
    <tripinfo id="R_98" depart="39.00" departLane="4_2" departPos="7.10" departSpeed="11.18" departDelay="0.00" arrival="79.20" arrivalLane="-3_0" arrivalPos="200.00" arrivalSpeed="11.18" duration="40.20" routeLength="398.06" waitingTime="3.40" waitingCount="1" stopTime="0.00" timeLoss="1.96" rerouteNo="0" devices="tripinfo_R_98" vType="car7@R_98" speedFactor="1.12" vaporized=""/>
    <tripinfo id="L_74" depart="29.00" departLane="2_1" departPos="5.10" departSpeed="11.18" departDelay="0.00" arrival="80.40" arrivalLane="-3_2" arrivalPos="200.00" arrivalSpeed="11.18" duration="51.40" routeLength="414.45" waitingTime="11.70" waitingCount="2" stopTime="0.00" timeLoss="11.60" rerouteNo="0" devices="tripinfo_L_74" vType="car5@L_74" speedFactor="0.96" vaporized=""/>
    <tripinfo id="R_53" depart="20.20" departLane="2_2" departPos="6.10" departSpeed="11.18" departDelay="0.20" arrival="81.70" arrivalLane="-1_0" arrivalPos="200.00" arrivalSpeed="11.18" duration="61.50" routeLength="399.06" waitingTime="22.10" waitingCount="4" stopTime="0.00" timeLoss="-4785.65" rerouteNo="0" devices="tripinfo_R_53" vType="car6@R_53" speedFactor="1.10" vaporized=""/>
    <tripinfo id="L_63" depart="24.30" departLane="4_2" departPos="7.10" departSpeed="11.18" departDelay="0.30" arrival="82.40" arrivalLane="-1_2" arrivalPos="200.00" arrivalSpeed="11.18" duration="58.10" routeLength="412.45" waitingTime="16.60" waitingCount="4" stopTime="0.00" timeLoss="-4596.25" rerouteNo="0" devices="tripinfo_L_63" vType="car7@L_63" speedFactor="0.99" vaporized=""/>
    <tripinfo id="R_78" depart="30.10" departLane="3_0" departPos="5.10" departSpeed="11.18" departDelay="0.10" arrival="83.00" arrivalLane="-2_0" arrivalPos="200.00" arrivalSpeed="11.18" duration="52.90" routeLength="400.06" waitingTime="15.60" waitingCount="1" stopTime="0.00" timeLoss="14.40" rerouteNo="0" devices="tripinfo_R_78" vType="car5@R_78" speedFactor="1.01" vaporized=""/>
    <tripinfo id="S_75" depart="29.00" departLane="3_1" departPos="7.10" departSpeed="11.18" departDelay="0.00" arrival="83.60" arrivalLane="-1_0" arrivalPos="200.00" arrivalSpeed="11.18" duration="54.60" routeLength="415.30" waitingTime="15.50" waitingCount="1" stopTime="0.00" timeLoss="-4878.10" rerouteNo="0" devices="tripinfo_S_75" vType="car7@S_75" speedFactor="0.98" vaporized=""/>
    <tripinfo id="S_81" depart="31.00" departLane="3_2" departPos="7.10" departSpeed="11.18" departDelay="0.00" arrival="84.80" arrivalLane="-1_1" arrivalPos="200.00" arrivalSpeed="11.18" duration="53.80" routeLength="415.30" waitingTime="14.30" waitingCount="2" stopTime="0.00" timeLoss="-4754.68" rerouteNo="0" devices="tripinfo_S_81" vType="car7@S_81" speedFactor="1.00" vaporized=""/>
    <tripinfo id="L_69" depart="26.70" departLane="4_1" departPos="7.10" departSpeed="11.18" departDelay="0.70" arrival="85.40" arrivalLane="-1_2" arrivalPos="200.00" arrivalSpeed="11.18" duration="58.70" routeLength="412.45" waitingTime="16.60" waitingCount="5" stopTime="0.00" timeLoss="-4776.00" rerouteNo="0" devices="tripinfo_L_69" vType="car7@L_69" speedFactor="1.02" vaporized=""/>
    <tripinfo id="S_83" depart="32.00" departLane="3_2" departPos="6.10" departSpeed="11.18" departDelay="0.00" arrival="85.70" arrivalLane="-1_1" arrivalPos="200.00" arrivalSpeed="11.18" duration="53.70" routeLength="416.30" waitingTime="12.30" waitingCount="2" stopTime="0.00" timeLoss="16.38" rerouteNo="0" devices="tripinfo_S_83" vType="car6@S_83" speedFactor="0.97" vaporized=""/>
    <tripinfo id="S_100" depart="41.00" departLane="1_2" departPos="5.10" departSpeed="11.18" departDelay="0.00" arrival="86.20" arrivalLane="-3_0" arrivalPos="200.00" arrivalSpeed="11.18" duration="45.20" routeLength="417.30" waitingTime="0.00" waitingCount="0" stopTime="0.00" timeLoss="-1.51" rerouteNo="0" devices="tripinfo_S_100" vType="car5@S_100" speedFactor="1.07" vaporized=""/>
    <tripinfo id="S_88" depart="34.90" departLane="1_0" departPos="6.10" departSpeed="11.18" departDelay="0.90" arrival="86.80" arrivalLane="-3_1" arrivalPos="200.00" arrivalSpeed="11.18" duration="51.90" routeLength="416.30" waitingTime="13.50" waitingCount="1" stopTime="0.00" timeLoss="-4948.13" rerouteNo="0" devices="tripinfo_S_88" vType="car6@S_88" speedFactor="1.01" vaporized=""/>
    <tripinfo id="S_31" depart="12.30" departLane="3_1" departPos="7.10" departSpeed="11.18" departDelay="0.30" arrival="87.00" arrivalLane="-1_2" arrivalPos="200.00" arrivalSpeed="11.18" duration="74.70" routeLength="415.30" waitingTime="33.10" waitingCount="4" stopTime="0.00" timeLoss="-4965.79" rerouteNo="0" devices="tripinfo_S_31" vType="car7@S_31" speedFactor="1.15" vaporized=""/>
    <tripinfo id="R_92" depart="35.00" departLane="3_0" departPos="5.10" departSpeed="11.18" departDelay="0.00" arrival="87.60" arrivalLane="-2_0" arrivalPos="200.00" arrivalSpeed="11.18" duration="52.60" routeLength="400.06" waitingTime="14.80" waitingCount="2" stopTime="0.00" timeLoss="13.87" rerouteNo="0" devices="tripinfo_R_92" vType="car5@R_92" speedFactor="0.83" vaporized=""/>