<?xml version="1.0" encoding="UTF-8"?>

<!-- generated on 02/26/21 20:07:49 by Eclipse SUMO GUI Version 1.8.0
<configuration xmlns:xsi="http://www.w3.org/2001/XMLSchema-instance" xsi:noNamespaceSchemaLocation="http://sumo.dlr.de/xsd/sumoConfiguration.xsd">

    <input>
        <net-file value="data/two_inter.net.xml"/>
        <route-files value="data/icacc+.rou.xml"/>
    </input>

    <output>
        <tripinfo-output value="tripinfo.xml"/>
    </output>

    <time>
        <begin value="0"/>
        <step-length value="0.1"/>
    </time>

    <processing>
        <threads value="8"/>
        <collision.mingap-factor value="0"/>
        <time-to-teleport value="-1"/>
        <default.speeddev value="1"/>
    </processing>

    <report>
        <verbose value="true"/>
        <log value="error_log.txt"/>
        <no-step-log value="true"/>
    </report>

    <traci_server>
        <remote-port value="14957"/>
    </traci_server>

    <gui_only>
        <start value="true"/>
        <tracker-interval value="0.1"/>
    </gui_only>

</configuration>
-->

<tripinfos xmlns:xsi="http://www.w3.org/2001/XMLSchema-instance" xsi:noNamespaceSchemaLocation="http://sumo.dlr.de/xsd/tripinfo_file.xsd">
    <tripinfo id="RX_7" depart="1.00" departLane="002_001_3_0" departPos="9.10" departSpeed="11.18" departDelay="0.00" arrival="36.90" arrivalLane="002_002_4_0" arrivalPos="200.00" arrivalSpeed="11.18" duration="35.90" routeLength="399.93" waitingTime="0.00" waitingCount="0" stopTime="0.00" timeLoss="-2.12" rerouteNo="1" devices="tripinfo_RX_7" vType="car9@RX_7" speedFactor="1.91" vaporized=""/>
    <tripinfo id="RX_5" depart="1.00" departLane="001_001_2_0" departPos="5.10" departSpeed="11.18" departDelay="0.00" arrival="37.30" arrivalLane="000_001_3_0" arrivalPos="200.00" arrivalSpeed="11.18" duration="36.30" routeLength="403.93" waitingTime="0.00" waitingCount="0" stopTime="0.00" timeLoss="-2.17" rerouteNo="1" devices="tripinfo_RX_5" vType="car5@RX_5" speedFactor="1.46" vaporized=""/>
    <tripinfo id="SX_0" depart="0.00" departLane="001_001_2_1" departPos="8.10" departSpeed="11.18" departDelay="0.00" arrival="37.50" arrivalLane="001_000_2_2" arrivalPos="200.00" arrivalSpeed="11.18" duration="37.50" routeLength="419.10" waitingTime="0.00" waitingCount="0" stopTime="0.00" timeLoss="0.00" rerouteNo="1" devices="tripinfo_SX_0" vType="car8@SX_0" speedFactor="1.60" vaporized=""/>
    <tripinfo id="SX_2" depart="0.00" departLane="002_001_2_1" departPos="7.10" departSpeed="11.18" departDelay="0.00" arrival="37.60" arrivalLane="002_000_2_2" arrivalPos="200.00" arrivalSpeed="11.18" duration="37.60" routeLength="420.10" waitingTime="0.00" waitingCount="0" stopTime="0.00" timeLoss="0.00" rerouteNo="1" devices="tripinfo_SX_2" vType="car7@SX_2" speedFactor="1.10" vaporized=""/>
    <tripinfo id="SX_3" depart="0.00" departLane="002_001_4_1" departPos="6.10" departSpeed="11.18" departDelay="0.00" arrival="37.70" arrivalLane="002_002_4_2" arrivalPos="200.00" arrivalSpeed="11.18" duration="37.70" routeLength="421.10" waitingTime="0.00" waitingCount="0" stopTime="0.00" timeLoss="0.00" rerouteNo="1" devices="tripinfo_SX_3" vType="car6@SX_3" speedFactor="1.83" vaporized=""/>
    <tripinfo id="RX_12" depart="2.00" departLane="002_001_4_0" departPos="6.10" departSpeed="11.18" departDelay="0.00" arrival="38.70" arrivalLane="003_001_1_0" arrivalPos="200.00" arrivalSpeed="11.18" duration="36.70" routeLength="402.93" waitingTime="0.00" waitingCount="0" stopTime="0.00" timeLoss="-2.29" rerouteNo="1" devices="tripinfo_RX_12" vType="car6@RX_12" speedFactor="1.30" vaporized=""/>
    <tripinfo id="RX_15" depart="3.00" departLane="002_001_3_0" departPos="8.10" departSpeed="11.18" departDelay="0.00" arrival="39.00" arrivalLane="002_002_4_0" arrivalPos="200.00" arrivalSpeed="11.18" duration="36.00" routeLength="400.93" waitingTime="0.00" waitingCount="0" stopTime="0.00" timeLoss="-2.48" rerouteNo="1" devices="tripinfo_RX_15" vType="car8@RX_15" speedFactor="1.10" vaporized=""/>
    <tripinfo id="LX_11" depart="2.00" departLane="002_001_3_2" departPos="9.10" departSpeed="11.18" departDelay="0.00" arrival="39.30" arrivalLane="002_000_2_2" arrivalPos="200.00" arrivalSpeed="11.18" duration="37.30" routeLength="414.12" waitingTime="0.00" waitingCount="0" stopTime="0.00" timeLoss="-2.11" rerouteNo="1" devices="tripinfo_LX_11" vType="car9@LX_11" speedFactor="1.83" vaporized=""/>
    <tripinfo id="RX_13" depart="3.00" departLane="001_001_2_0" departPos="9.10" departSpeed="11.18" departDelay="0.00" arrival="40.00" arrivalLane="000_001_3_2" arrivalPos="200.00" arrivalSpeed="11.18" duration="37.00" routeLength="410.26" waitingTime="0.00" waitingCount="0" stopTime="0.00" timeLoss="-2.12" rerouteNo="1" devices="tripinfo_RX_13" vType="car9@RX_13" speedFactor="1.46" vaporized=""/>
    <tripinfo id="LX_10" depart="2.00" departLane="002_001_2_2" departPos="7.10" departSpeed="11.18" departDelay="0.00" arrival="40.10" arrivalLane="003_001_1_2" arrivalPos="200.00" arrivalSpeed="11.18" duration="38.10" routeLength="416.11" waitingTime="0.00" waitingCount="0" stopTime="0.00" timeLoss="-2.12" rerouteNo="1" devices="tripinfo_LX_10" vType="car7@LX_10" speedFactor="1.10" vaporized=""/>
    <tripinfo id="RX_17" depart="4.00" departLane="001_001_1_0" departPos="7.10" departSpeed="11.18" departDelay="0.00" arrival="40.10" arrivalLane="001_000_2_0" arrivalPos="200.00" arrivalSpeed="11.18" duration="36.10" routeLength="401.93" waitingTime="0.00" waitingCount="0" stopTime="0.00" timeLoss="-2.12" rerouteNo="1" devices="tripinfo_RX_17" vType="car7@RX_17" speedFactor="1.91" vaporized=""/>
    <tripinfo id="RX_22" depart="5.10" departLane="001_001_1_0" departPos="5.10" departSpeed="11.18" departDelay="0.10" arrival="41.40" arrivalLane="001_000_2_0" arrivalPos="200.00" arrivalSpeed="11.18" duration="36.30" routeLength="403.93" waitingTime="0.00" waitingCount="0" stopTime="0.00" timeLoss="-2.61" rerouteNo="1" devices="tripinfo_RX_22" vType="car5@RX_22" speedFactor="1.00" vaporized=""/>
    <tripinfo id="LX_19" depart="4.00" departLane="001_001_4_2" departPos="5.10" departSpeed="11.18" departDelay="0.00" arrival="41.70" arrivalLane="000_001_3_2" arrivalPos="200.00" arrivalSpeed="11.18" duration="37.70" routeLength="418.11" waitingTime="0.00" waitingCount="0" stopTime="0.00" timeLoss="-2.12" rerouteNo="1" devices="tripinfo_LX_19" vType="car5@LX_19" speedFactor="1.05" vaporized=""/>
    <tripinfo id="RX_26" depart="6.00" departLane="001_001_2_0" departPos="9.10" departSpeed="11.18" departDelay="0.00" arrival="41.90" arrivalLane="000_001_3_0" arrivalPos="200.00" arrivalSpeed="11.18" duration="35.90" routeLength="399.93" waitingTime="0.00" waitingCount="0" stopTime="0.00" timeLoss="-2.23" rerouteNo="1" devices="tripinfo_RX_26" vType="car9@RX_26" speedFactor="1.38" vaporized=""/>
    <tripinfo id="SX_16" depart="3.00" departLane="002_001_4_1" departPos="5.10" departSpeed="11.18" departDelay="0.00" arrival="42.00" arrivalLane="002_002_4_2" arrivalPos="200.00" arrivalSpeed="11.18" duration="39.00" routeLength="422.10" waitingTime="0.00" waitingCount="0" stopTime="0.00" timeLoss="-0.03" rerouteNo="1" devices="tripinfo_SX_16" vType="car5@SX_16" speedFactor="1.00" vaporized=""/>
    <tripinfo id="RX_29" depart="6.00" departLane="002_001_3_0" departPos="7.10" departSpeed="11.18" departDelay="0.00" arrival="42.10" arrivalLane="002_002_4_0" arrivalPos="200.00" arrivalSpeed="11.18" duration="36.10" routeLength="401.93" waitingTime="0.00" waitingCount="0" stopTime="0.00" timeLoss="-2.61" rerouteNo="1" devices="tripinfo_RX_29" vType="car7@RX_29" speedFactor="1.00" vaporized=""/>
    <tripinfo id="RX_31" depart="7.00" departLane="001_001_1_0" departPos="6.10" departSpeed="11.18" departDelay="0.00" arrival="43.20" arrivalLane="001_000_2_0" arrivalPos="200.00" arrivalSpeed="11.18" duration="36.20" routeLength="402.93" waitingTime="0.00" waitingCount="0" stopTime="0.00" timeLoss="-2.12" rerouteNo="1" devices="tripinfo_RX_31" vType="car6@RX_31" speedFactor="1.96" vaporized=""/>
    <tripinfo id="LX_33" depart="7.00" departLane="001_001_4_2" departPos="5.10" departSpeed="11.18" departDelay="0.00" arrival="45.10" arrivalLane="000_001_3_2" arrivalPos="200.00" arrivalSpeed="11.18" duration="38.10" routeLength="418.11" waitingTime="0.00" waitingCount="0" stopTime="0.00" timeLoss="-2.12" rerouteNo="1" devices="tripinfo_LX_33" vType="car5@LX_33" speedFactor="1.00" vaporized=""/>
    <tripinfo id="SX_36" depart="8.00" departLane="002_001_4_1" departPos="9.10" departSpeed="11.18" departDelay="0.00" arrival="45.40" arrivalLane="002_002_4_1" arrivalPos="200.00" arrivalSpeed="11.18" duration="37.40" routeLength="418.10" waitingTime="0.00" waitingCount="0" stopTime="0.00" timeLoss="0.00" rerouteNo="1" devices="tripinfo_SX_36" vType="car9@SX_36" speedFactor="1.82" vaporized=""/>
    <tripinfo id="SX_28" depart="6.00" departLane="002_001_2_1" departPos="9.10" departSpeed="11.18" departDelay="0.00" arrival="45.90" arrivalLane="002_000_2_2" arrivalPos="200.00" arrivalSpeed="11.18" duration="39.90" routeLength="418.10" waitingTime="1.50" waitingCount="1" stopTime="0.00" timeLoss="-4526.48" rerouteNo="1" devices="tripinfo_SX_28" vType="car9@SX_28" speedFactor="1.88" vaporized=""/>
    <tripinfo id="SX_35" depart="8.00" departLane="002_001_2_1" departPos="8.10" departSpeed="11.18" departDelay="0.00" arrival="46.40" arrivalLane="002_000_2_1" arrivalPos="200.00" arrivalSpeed="11.18" duration="38.40" routeLength="419.10" waitingTime="0.00" waitingCount="0" stopTime="0.00" timeLoss="-0.03" rerouteNo="1" devices="tripinfo_SX_35" vType="car8@SX_35" speedFactor="1.18" vaporized=""/>
    <tripinfo id="RX_49" depart="11.00" departLane="002_001_3_0" departPos="9.10" departSpeed="11.18" departDelay="0.00" arrival="46.90" arrivalLane="002_002_4_0" arrivalPos="200.00" arrivalSpeed="11.18" duration="35.90" routeLength="399.93" waitingTime="0.00" waitingCount="0" stopTime="0.00" timeLoss="-2.38" rerouteNo="1" devices="tripinfo_RX_49" vType="car9@RX_49" speedFactor="1.20" vaporized=""/>
    <tripinfo id="SX_41" depart="10.00" departLane="001_001_2_1" departPos="9.10" departSpeed="11.18" departDelay="0.00" arrival="47.40" arrivalLane="001_000_2_0" arrivalPos="200.00" arrivalSpeed="11.18" duration="37.40" routeLength="418.10" waitingTime="0.00" waitingCount="0" stopTime="0.00" timeLoss="0.00" rerouteNo="1" devices="tripinfo_SX_41" vType="car9@SX_41" speedFactor="1.22" vaporized=""/>
    <tripinfo id="LX_42" depart="10.00" departLane="001_001_4_2" departPos="6.10" departSpeed="11.18" departDelay="0.00" arrival="48.10" arrivalLane="000_001_3_2" arrivalPos="200.00" arrivalSpeed="11.18" duration="38.10" routeLength="417.11" waitingTime="0.00" waitingCount="0" stopTime="0.00" timeLoss="-2.13" rerouteNo="1" devices="tripinfo_LX_42" vType="car6@LX_42" speedFactor="1.23" vaporized=""/>
    <tripinfo id="SX_45" depart="10.00" departLane="002_001_4_1" departPos="6.10" departSpeed="11.18" departDelay="0.00" arrival="48.70" arrivalLane="002_002_4_0" arrivalPos="200.00" arrivalSpeed="11.18" duration="38.70" routeLength="421.10" waitingTime="0.00" waitingCount="0" stopTime="0.00" timeLoss="-0.04" rerouteNo="1" devices="tripinfo_SX_45" vType="car6@SX_45" speedFactor="1.56" vaporized=""/>
    <tripinfo id="SX_34" depart="7.00" departLane="002_001_2_1" departPos="6.10" departSpeed="11.18" departDelay="0.00" arrival="49.10" arrivalLane="002_000_2_2" arrivalPos="200.00" arrivalSpeed="11.18" duration="42.10" routeLength="421.10" waitingTime="2.40" waitingCount="2" stopTime="0.00" timeLoss="-4714.05" rerouteNo="1" devices="tripinfo_SX_34" vType="car6@SX_34" speedFactor="1.24" vaporized=""/>
    <tripinfo id="RX_60" depart="13.00" departLane="002_001_3_0" departPos="7.10" departSpeed="11.18" departDelay="0.00" arrival="49.90" arrivalLane="002_002_4_0" arrivalPos="200.00" arrivalSpeed="11.18" duration="36.90" routeLength="401.93" waitingTime="0.00" waitingCount="0" stopTime="0.00" timeLoss="-2.38" rerouteNo="1" devices="tripinfo_RX_60" vType="car7@RX_60" speedFactor="1.22" vaporized=""/>
    <tripinfo id="LX_40" depart="10.00" departLane="001_001_1_2" departPos="9.10" departSpeed="11.18" departDelay="0.00" arrival="50.60" arrivalLane="001_002_4_2" arrivalPos="200.00" arrivalSpeed="11.18" duration="40.60" routeLength="414.12" waitingTime="2.30" waitingCount="1" stopTime="0.00" timeLoss="-4528.61" rerouteNo="1" devices="tripinfo_LX_40" vType="car9@LX_40" speedFactor="1.40" vaporized=""/>
    <tripinfo id="RX_66" depart="14.30" departLane="002_001_3_0" departPos="7.10" departSpeed="11.18" departDelay="0.30" arrival="50.80" arrivalLane="002_002_4_0" arrivalPos="200.00" arrivalSpeed="11.18" duration="36.50" routeLength="401.93" waitingTime="0.00" waitingCount="0" stopTime="0.00" timeLoss="-2.15" rerouteNo="1" devices="tripinfo_RX_66" vType="car7@RX_66" speedFactor="1.97" vaporized=""/>
    <tripinfo id="RX_70" depart="15.00" departLane="002_001_4_0" departPos="7.10" departSpeed="11.18" departDelay="0.00" arrival="51.10" arrivalLane="003_001_1_0" arrivalPos="200.00" arrivalSpeed="11.18" duration="36.10" routeLength="401.93" waitingTime="0.00" waitingCount="0" stopTime="0.00" timeLoss="-2.12" rerouteNo="1" devices="tripinfo_RX_70" vType="car7@RX_70" speedFactor="1.88" vaporized=""/>
    <tripinfo id="LX_38" depart="9.00" departLane="002_001_3_2" departPos="8.10" departSpeed="11.18" departDelay="0.00" arrival="51.60" arrivalLane="002_000_2_2" arrivalPos="200.00" arrivalSpeed="11.18" duration="42.60" routeLength="415.12" waitingTime="0.00" waitingCount="0" stopTime="0.00" timeLoss="-3.81" rerouteNo="1" devices="tripinfo_LX_38" vType="car8@LX_38" speedFactor="1.10" vaporized=""/>
    <tripinfo id="RX_68" depart="15.00" departLane="001_001_2_0" departPos="6.10" departSpeed="11.18" departDelay="0.00" arrival="51.60" arrivalLane="000_001_3_0" arrivalPos="200.00" arrivalSpeed="11.18" duration="36.60" routeLength="402.93" waitingTime="0.00" waitingCount="0" stopTime="0.00" timeLoss="-2.11" rerouteNo="1" devices="tripinfo_RX_68" vType="car6@RX_68" speedFactor="1.38" vaporized=""/>
    <tripinfo id="LX_46" depart="11.10" departLane="001_001_1_2" departPos="5.10" departSpeed="11.18" departDelay="0.10" arrival="51.70" arrivalLane="001_002_4_2" arrivalPos="200.00" arrivalSpeed="11.18" duration="40.60" routeLength="418.12" waitingTime="2.20" waitingCount="1" stopTime="0.00" timeLoss="0.62" rerouteNo="1" devices="tripinfo_LX_46" vType="car5@LX_46" speedFactor="1.05" vaporized=""/>
    <tripinfo id="SX_58" depart="13.10" departLane="001_001_2_1" departPos="5.10" departSpeed="11.18" departDelay="0.10" arrival="52.40" arrivalLane="001_000_2_0" arrivalPos="200.00" arrivalSpeed="11.18" duration="39.30" routeLength="422.10" waitingTime="0.00" waitingCount="0" stopTime="0.00" timeLoss="-0.08" rerouteNo="1" devices="tripinfo_SX_58" vType="car5@SX_58" speedFactor="1.43" vaporized=""/>
    <tripinfo id="LX_44" depart="10.20" departLane="002_001_3_2" departPos="6.10" departSpeed="11.18" departDelay="0.20" arrival="52.60" arrivalLane="002_000_2_2" arrivalPos="200.00" arrivalSpeed="11.18" duration="42.40" routeLength="417.12" waitingTime="0.00" waitingCount="0" stopTime="0.00" timeLoss="-2.02" rerouteNo="1" devices="tripinfo_LX_44" vType="car6@LX_44" speedFactor="1.00" vaporized=""/>
    <tripinfo id="SX_52" depart="12.00" departLane="001_001_2_1" departPos="9.10" departSpeed="11.18" departDelay="0.00" arrival="52.90" arrivalLane="001_000_2_1" arrivalPos="200.00" arrivalSpeed="11.18" duration="40.90" routeLength="418.10" waitingTime="2.50" waitingCount="1" stopTime="0.00" timeLoss="-4526.48" rerouteNo="1" devices="tripinfo_SX_52" vType="car9@SX_52" speedFactor="1.34" vaporized=""/>
    <tripinfo id="LX_43" depart="10.00" departLane="002_001_2_2" departPos="7.10" departSpeed="11.18" departDelay="0.00" arrival="53.10" arrivalLane="003_001_1_2" arrivalPos="200.00" arrivalSpeed="11.18" duration="43.10" routeLength="416.11" waitingTime="3.50" waitingCount="2" stopTime="0.00" timeLoss="-4899.31" rerouteNo="1" devices="tripinfo_LX_43" vType="car7@LX_43" speedFactor="1.00" vaporized=""/>
    <tripinfo id="RX_77" depart="17.00" departLane="002_001_3_0" departPos="7.10" departSpeed="11.18" departDelay="0.00" arrival="53.10" arrivalLane="002_002_4_0" arrivalPos="200.00" arrivalSpeed="11.18" duration="36.10" routeLength="401.93" waitingTime="0.00" waitingCount="0" stopTime="0.00" timeLoss="-2.12" rerouteNo="1" devices="tripinfo_RX_77" vType="car7@RX_77" speedFactor="1.99" vaporized=""/>
    <tripinfo id="RX_74" depart="17.00" departLane="001_001_1_0" departPos="8.10" departSpeed="11.18" departDelay="0.00" arrival="53.50" arrivalLane="001_000_2_0" arrivalPos="200.00" arrivalSpeed="11.18" duration="36.50" routeLength="400.93" waitingTime="0.00" waitingCount="0" stopTime="0.00" timeLoss="-2.14" rerouteNo="1" devices="tripinfo_RX_74" vType="car8@RX_74" speedFactor="1.65" vaporized=""/>
    <tripinfo id="SX_65" depart="14.00" departLane="002_001_2_1" departPos="8.10" departSpeed="11.18" departDelay="0.00" arrival="53.80" arrivalLane="002_000_2_1" arrivalPos="200.00" arrivalSpeed="11.18" duration="39.80" routeLength="419.10" waitingTime="0.00" waitingCount="0" stopTime="0.00" timeLoss="-0.20" rerouteNo="1" devices="tripinfo_SX_65" vType="car8@SX_65" speedFactor="1.10" vaporized=""/>
    <tripinfo id="RX_78" depart="17.00" departLane="002_001_4_0" departPos="9.10" departSpeed="11.18" departDelay="0.00" arrival="53.80" arrivalLane="003_001_1_0" arrivalPos="200.00" arrivalSpeed="11.18" duration="36.80" routeLength="399.93" waitingTime="0.00" waitingCount="0" stopTime="0.00" timeLoss="-2.51" rerouteNo="1" devices="tripinfo_RX_78" vType="car9@RX_78" speedFactor="1.09" vaporized=""/>
    <tripinfo id="LX_54" depart="12.00" departLane="002_001_2_2" departPos="5.10" departSpeed="11.18" departDelay="0.00" arrival="54.00" arrivalLane="003_001_1_2" arrivalPos="200.00" arrivalSpeed="11.18" duration="42.00" routeLength="418.11" waitingTime="2.70" waitingCount="2" stopTime="0.00" timeLoss="2.12" rerouteNo="1" devices="tripinfo_LX_54" vType="car5@LX_54" speedFactor="1.17" vaporized=""/>
    <tripinfo id="LX_57" depart="13.00" departLane="001_001_1_2" departPos="8.10" departSpeed="11.18" departDelay="0.00" arrival="54.60" arrivalLane="001_002_4_2" arrivalPos="200.00" arrivalSpeed="11.18" duration="41.60" routeLength="415.12" waitingTime="2.50" waitingCount="2" stopTime="0.00" timeLoss="-4787.04" rerouteNo="1" devices="tripinfo_LX_57" vType="car8@LX_57" speedFactor="1.02" vaporized=""/>
    <tripinfo id="RX_87" depart="19.00" departLane="002_001_3_0" departPos="7.10" departSpeed="11.18" departDelay="0.00" arrival="55.10" arrivalLane="002_002_4_0" arrivalPos="200.00" arrivalSpeed="11.18" duration="36.10" routeLength="401.93" waitingTime="0.00" waitingCount="0" stopTime="0.00" timeLoss="-2.12" rerouteNo="1" devices="tripinfo_RX_87" vType="car7@RX_87" speedFactor="1.61" vaporized=""/>
    <tripinfo id="LX_62" depart="14.30" departLane="001_001_1_2" departPos="7.10" departSpeed="11.18" departDelay="0.30" arrival="55.70" arrivalLane="001_002_4_2" arrivalPos="200.00" arrivalSpeed="11.18" duration="41.40" routeLength="416.12" waitingTime="2.10" waitingCount="2" stopTime="0.00" timeLoss="1.58" rerouteNo="1" devices="tripinfo_LX_62" vType="car7@LX_62" speedFactor="1.92" vaporized=""/>
    <tripinfo id="SX_81" depart="18.00" departLane="001_001_4_1" departPos="7.10" departSpeed="11.18" departDelay="0.00" arrival="55.70" arrivalLane="001_002_4_1" arrivalPos="200.00" arrivalSpeed="11.18" duration="37.70" routeLength="420.10" waitingTime="0.00" waitingCount="0" stopTime="0.00" timeLoss="-0.00" rerouteNo="1" devices="tripinfo_SX_81" vType="car7@SX_81" speedFactor="1.04" vaporized=""/>
    <tripinfo id="RX_89" depart="20.00" departLane="001_001_1_0" departPos="8.10" departSpeed="11.18" departDelay="0.00" arrival="56.00" arrivalLane="001_000_2_0" arrivalPos="200.00" arrivalSpeed="11.18" duration="36.00" routeLength="400.93" waitingTime="0.00" waitingCount="0" stopTime="0.00" timeLoss="-2.50" rerouteNo="1" devices="tripinfo_RX_89" vType="car8@RX_89" speedFactor="1.08" vaporized=""/>
    <tripinfo id="LX_64" depart="14.00" departLane="001_001_4_2" departPos="5.10" departSpeed="11.18" departDelay="0.00" arrival="56.20" arrivalLane="000_001_3_2" arrivalPos="200.00" arrivalSpeed="11.18" duration="42.20" routeLength="418.11" waitingTime="0.00" waitingCount="0" stopTime="0.00" timeLoss="-4.01" rerouteNo="1" devices="tripinfo_LX_64" vType="car5@LX_64" speedFactor="1.57" vaporized=""/>
    <tripinfo id="LX_55" depart="12.00" departLane="002_001_3_2" departPos="5.10" departSpeed="11.18" departDelay="0.00" arrival="56.40" arrivalLane="002_000_2_2" arrivalPos="200.00" arrivalSpeed="11.18" duration="44.40" routeLength="418.12" waitingTime="2.00" waitingCount="1" stopTime="0.00" timeLoss="-4825.46" rerouteNo="1" devices="tripinfo_LX_55" vType="car5@LX_55" speedFactor="1.30" vaporized=""/>
    <tripinfo id="RX_92" depart="20.10" departLane="002_001_3_0" departPos="5.10" departSpeed="11.18" departDelay="0.10" arrival="56.40" arrivalLane="002_002_4_0" arrivalPos="200.00" arrivalSpeed="11.18" duration="36.30" routeLength="403.93" waitingTime="0.00" waitingCount="0" stopTime="0.00" timeLoss="-2.34" rerouteNo="1" devices="tripinfo_RX_92" vType="car5@RX_92" speedFactor="1.24" vaporized=""/>
    <tripinfo id="LX_59" depart="13.40" departLane="002_001_2_2" departPos="8.10" departSpeed="11.18" departDelay="0.40" arrival="56.70" arrivalLane="003_001_1_2" arrivalPos="200.00" arrivalSpeed="11.18" duration="43.30" routeLength="415.11" waitingTime="3.40" waitingCount="2" stopTime="0.00" timeLoss="-4818.82" rerouteNo="1" devices="tripinfo_LX_59" vType="car8@LX_59" speedFactor="1.07" vaporized=""/>
    <tripinfo id="RX_94" depart="21.20" departLane="001_001_1_0" departPos="6.10" departSpeed="11.18" departDelay="0.20" arrival="57.40" arrivalLane="001_000_2_0" arrivalPos="200.00" arrivalSpeed="11.18" duration="36.20" routeLength="402.93" waitingTime="0.00" waitingCount="0" stopTime="0.00" timeLoss="-2.46" rerouteNo="1" devices="tripinfo_RX_94" vType="car6@RX_94" speedFactor="1.12" vaporized=""/>
    <tripinfo id="SX_82" depart="18.00" departLane="002_001_2_1" departPos="9.10" departSpeed="11.18" departDelay="0.00" arrival="57.80" arrivalLane="002_000_2_1" arrivalPos="200.00" arrivalSpeed="11.18" duration="39.80" routeLength="418.10" waitingTime="0.00" waitingCount="0" stopTime="0.00" timeLoss="-0.95" rerouteNo="1" devices="tripinfo_SX_82" vType="car9@SX_82" speedFactor="1.03" vaporized=""/>
    <tripinfo id="SX_63" depart="14.00" departLane="001_001_2_1" departPos="5.10" departSpeed="11.18" departDelay="0.00" arrival="57.90" arrivalLane="001_000_2_1" arrivalPos="200.00" arrivalSpeed="11.18" duration="43.90" routeLength="422.10" waitingTime="4.60" waitingCount="2" stopTime="0.00" timeLoss="-4482.89" rerouteNo="1" devices="tripinfo_SX_63" vType="car5@SX_63" speedFactor="1.91" vaporized=""/>
    <tripinfo id="SX_61" depart="13.00" departLane="002_001_4_1" departPos="5.10" departSpeed="11.18" departDelay="0.00" arrival="58.70" arrivalLane="002_002_4_1" arrivalPos="200.00" arrivalSpeed="11.18" duration="45.70" routeLength="422.10" waitingTime="0.00" waitingCount="0" stopTime="0.00" timeLoss="-2.29" rerouteNo="1" devices="tripinfo_SX_61" vType="car5@SX_61" speedFactor="1.17" vaporized=""/>
    <tripinfo id="LX_67" depart="15.80" departLane="001_001_1_2" departPos="9.10" departSpeed="11.18" departDelay="0.80" arrival="59.30" arrivalLane="001_002_4_2" arrivalPos="200.00" arrivalSpeed="11.18" duration="43.50" routeLength="414.12" waitingTime="3.40" waitingCount="3" stopTime="0.00" timeLoss="-3989.15" rerouteNo="1" devices="tripinfo_LX_67" vType="car9@LX_67" speedFactor="1.65" vaporized=""/>
    <tripinfo id="LX_69" depart="15.00" departLane="002_001_2_2" departPos="6.10" departSpeed="11.18" departDelay="0.00" arrival="59.50" arrivalLane="003_001_1_2" arrivalPos="200.00" arrivalSpeed="11.18" duration="44.50" routeLength="417.11" waitingTime="4.40" waitingCount="3" stopTime="0.00" timeLoss="-4745.93" rerouteNo="1" devices="tripinfo_LX_69" vType="car6@LX_69" speedFactor="1.43" vaporized=""/>
    <tripinfo id="RR_14" depart="4.20" departLane="001_001_4_0" departPos="9.10" departSpeed="11.18" departDelay="1.20" arrival="59.80" arrivalLane="002_000_2_0" arrivalPos="200.00" arrivalSpeed="11.18" duration="55.60" routeLength="608.96" waitingTime="0.00" waitingCount="0" stopTime="0.00" timeLoss="-2.51" rerouteNo="2" devices="tripinfo_RR_14" vType="car9@RR_14" speedFactor="1.18" vaporized=""/>
    <tripinfo id="LX_73" depart="16.00" departLane="001_001_4_2" departPos="8.10" departSpeed="11.18" departDelay="0.00" arrival="59.90" arrivalLane="000_001_3_2" arrivalPos="200.00" arrivalSpeed="11.18" duration="43.90" routeLength="415.11" waitingTime="1.80" waitingCount="1" stopTime="0.00" timeLoss="-4678.05" rerouteNo="1" devices="tripinfo_LX_73" vType="car8@LX_73" speedFactor="1.34" vaporized=""/>
    <tripinfo id="RX_110" depart="24.00" departLane="002_001_3_0" departPos="8.10" departSpeed="11.18" departDelay="0.00" arrival="60.00" arrivalLane="002_002_4_0" arrivalPos="200.00" arrivalSpeed="11.18" duration="36.00" routeLength="400.93" waitingTime="0.00" waitingCount="0" stopTime="0.00" timeLoss="-2.13" rerouteNo="1" devices="tripinfo_RX_110" vType="car8@RX_110" speedFactor="1.52" vaporized=""/>
    <tripinfo id="SX_99" depart="22.00" departLane="001_001_4_1" departPos="5.10" departSpeed="11.18" departDelay="0.00" arrival="60.10" arrivalLane="001_002_4_1" arrivalPos="200.00" arrivalSpeed="11.18" duration="38.10" routeLength="422.10" waitingTime="0.00" waitingCount="0" stopTime="0.00" timeLoss="-0.00" rerouteNo="1" devices="tripinfo_SX_99" vType="car5@SX_99" speedFactor="1.02" vaporized=""/>
    <tripinfo id="LX_86" depart="19.00" departLane="002_001_2_2" departPos="9.10" departSpeed="11.18" departDelay="0.00" arrival="60.30" arrivalLane="003_001_1_2" arrivalPos="200.00" arrivalSpeed="11.18" duration="41.30" routeLength="414.11" waitingTime="2.20" waitingCount="2" stopTime="0.00" timeLoss="1.85" rerouteNo="1" devices="tripinfo_LX_86" vType="car9@LX_86" speedFactor="1.23" vaporized=""/>
    <tripinfo id="RS_6" depart="1.30" departLane="001_001_4_0" departPos="7.10" departSpeed="11.18" departDelay="0.30" arrival="60.50" arrivalLane="003_001_1_0" arrivalPos="200.00" arrivalSpeed="11.18" duration="59.20" routeLength="629.13" waitingTime="0.00" waitingCount="0" stopTime="0.00" timeLoss="-1.07" rerouteNo="2" devices="tripinfo_RS_6" vType="car7@RS_6" speedFactor="1.00" vaporized=""/>
    <tripinfo id="LX_75" depart="17.50" departLane="001_001_4_2" departPos="9.10" departSpeed="11.18" departDelay="0.50" arrival="61.00" arrivalLane="000_001_3_2" arrivalPos="200.00" arrivalSpeed="11.18" duration="43.50" routeLength="414.11" waitingTime="1.90" waitingCount="1" stopTime="0.00" timeLoss="3.87" rerouteNo="1" devices="tripinfo_LX_75" vType="car9@LX_75" speedFactor="1.00" vaporized=""/>
    <tripinfo id="RS_1" depart="0.00" departLane="001_001_4_0" departPos="9.10" departSpeed="11.18" departDelay="0.00" arrival="62.10" arrivalLane="003_001_1_2" arrivalPos="200.00" arrivalSpeed="11.18" duration="62.10" routeLength="627.13" waitingTime="0.00" waitingCount="0" stopTime="0.00" timeLoss="-6.36" rerouteNo="2" devices="tripinfo_RS_1" vType="car9@RS_1" speedFactor="1.60" vaporized=""/>
    <tripinfo id="SX_90" depart="20.00" departLane="001_001_2_1" departPos="9.10" departSpeed="11.18" departDelay="0.00" arrival="62.20" arrivalLane="001_000_2_2" arrivalPos="200.00" arrivalSpeed="11.18" duration="42.20" routeLength="418.10" waitingTime="3.80" waitingCount="1" stopTime="0.00" timeLoss="-4526.49" rerouteNo="1" devices="tripinfo_SX_90" vType="car9@SX_90" speedFactor="1.32" vaporized=""/>
    <tripinfo id="RX_115" depart="26.00" departLane="001_001_1_0" departPos="6.10" departSpeed="11.18" departDelay="0.00" arrival="62.20" arrivalLane="001_000_2_0" arrivalPos="200.00" arrivalSpeed="11.18" duration="36.20" routeLength="402.93" waitingTime="0.00" waitingCount="0" stopTime="0.00" timeLoss="-2.12" rerouteNo="1" devices="tripinfo_RX_115" vType="car6@RX_115" speedFactor="1.87" vaporized=""/>
</tripinfos>
