<?xml version="1.0" encoding="UTF-8"?>

<!-- generated on 04/19/21 03:01:42 by Eclipse SUMO GUI Version 1.8.0
<configuration xmlns:xsi="http://www.w3.org/2001/XMLSchema-instance" xsi:noNamespaceSchemaLocation="http://sumo.dlr.de/xsd/sumoConfiguration.xsd">

    <input>
        <net-file value="data/lane3_roundabout.net.xml"/>
        <route-files value="data/icacc+.rou.xml"/>
        <additional-files value="data/icacc+.det.xml"/>
    </input>

    <output>
        <tripinfo-output value="tripinfo.xml"/>
    </output>

    <time>
        <begin value="0"/>
        <step-length value="0.1"/>
    </time>

    <processing>
        <collision.mingap-factor value="0"/>
        <time-to-teleport value="-1"/>
        <lanechange.duration value="0.5"/>
    </processing>

    <report>
        <verbose value="true"/>
        <no-step-log value="true"/>
    </report>

    <traci_server>
        <remote-port value="5827"/>
    </traci_server>

    <gui_only>
        <start value="true"/>
        <tracker-interval value="0.1"/>
    </gui_only>

</configuration>
-->

<tripinfos xmlns:xsi="http://www.w3.org/2001/XMLSchema-instance" xsi:noNamespaceSchemaLocation="http://sumo.dlr.de/xsd/tripinfo_file.xsd">
    <tripinfo id="S_2" depart="1.00" departLane="1_0" departPos="9.10" departSpeed="11.18" departDelay="0.00" arrival="42.90" arrivalLane="-3_0" arrivalPos="200.00" arrivalSpeed="11.18" duration="41.90" routeLength="467.46" waitingTime="0.00" waitingCount="0" stopTime="0.00" timeLoss="-0.68" rerouteNo="0" devices="tripinfo_S_2" vType="car9@S_2" speedFactor="1.01" vaporized=""/>
    <tripinfo id="S_0" depart="0.00" departLane="3_0" departPos="7.10" departSpeed="11.18" departDelay="0.00" arrival="43.60" arrivalLane="-1_2" arrivalPos="200.00" arrivalSpeed="11.18" duration="43.60" routeLength="486.87" waitingTime="0.00" waitingCount="0" stopTime="0.00" timeLoss="0.00" rerouteNo="0" devices="tripinfo_S_0" vType="car7@S_0" speedFactor="1.06" vaporized=""/>
    <tripinfo id="S_4" depart="1.00" departLane="4_2" departPos="9.10" departSpeed="11.18" departDelay="0.00" arrival="43.60" arrivalLane="-2_1" arrivalPos="200.00" arrivalSpeed="11.18" duration="42.60" routeLength="476.19" waitingTime="0.00" waitingCount="0" stopTime="0.00" timeLoss="-0.30" rerouteNo="0" devices="tripinfo_S_4" vType="car9@S_4" speedFactor="1.03" vaporized=""/>
    <tripinfo id="R_16" depart="5.00" departLane="4_2" departPos="8.10" departSpeed="11.18" departDelay="0.00" arrival="44.10" arrivalLane="-3_0" arrivalPos="200.00" arrivalSpeed="11.18" duration="39.10" routeLength="425.58" waitingTime="0.00" waitingCount="0" stopTime="0.00" timeLoss="-1.04" rerouteNo="0" devices="tripinfo_R_16" vType="car8@R_16" speedFactor="0.88" vaporized=""/>
    <tripinfo id="S_3" depart="1.00" departLane="2_2" departPos="6.10" departSpeed="11.18" departDelay="0.00" arrival="44.60" arrivalLane="-4_2" arrivalPos="200.00" arrivalSpeed="11.18" duration="43.60" routeLength="487.51" waitingTime="0.00" waitingCount="0" stopTime="0.00" timeLoss="0.00" rerouteNo="0" devices="tripinfo_S_3" vType="car6@S_3" speedFactor="1.08" vaporized=""/>
    <tripinfo id="S_7" depart="2.40" departLane="4_1" departPos="8.10" departSpeed="11.18" departDelay="0.40" arrival="45.80" arrivalLane="-2_1" arrivalPos="200.00" arrivalSpeed="11.18" duration="43.40" routeLength="477.19" waitingTime="0.00" waitingCount="0" stopTime="0.00" timeLoss="-0.74" rerouteNo="0" devices="tripinfo_S_7" vType="car8@S_7" speedFactor="0.89" vaporized=""/>
    <tripinfo id="L_1" depart="0.00" departLane="4_2" departPos="7.10" departSpeed="11.18" departDelay="0.00" arrival="45.90" arrivalLane="-1_0" arrivalPos="200.00" arrivalSpeed="11.18" duration="45.90" routeLength="512.27" waitingTime="0.00" waitingCount="0" stopTime="0.00" timeLoss="-0.84" rerouteNo="0" devices="tripinfo_L_1" vType="car7@L_1" speedFactor="0.94" vaporized=""/>
    <tripinfo id="S_11" depart="3.00" departLane="4_2" departPos="7.10" departSpeed="11.18" departDelay="0.00" arrival="46.60" arrivalLane="-2_2" arrivalPos="200.00" arrivalSpeed="11.18" duration="43.60" routeLength="486.95" waitingTime="0.00" waitingCount="0" stopTime="0.00" timeLoss="0.00" rerouteNo="0" devices="tripinfo_S_11" vType="car7@S_11" speedFactor="1.03" vaporized=""/>
    <tripinfo id="L_6" depart="2.00" departLane="3_0" departPos="5.10" departSpeed="11.18" departDelay="0.00" arrival="48.00" arrivalLane="-4_0" arrivalPos="200.00" arrivalSpeed="11.18" duration="46.00" routeLength="514.22" waitingTime="0.00" waitingCount="0" stopTime="0.00" timeLoss="-0.62" rerouteNo="0" devices="tripinfo_L_6" vType="car5@L_6" speedFactor="1.05" vaporized=""/>
    <tripinfo id="S_20" depart="6.00" departLane="4_1" departPos="7.10" departSpeed="11.18" departDelay="0.00" arrival="48.90" arrivalLane="-2_0" arrivalPos="200.00" arrivalSpeed="11.18" duration="42.90" routeLength="469.45" waitingTime="0.00" waitingCount="0" stopTime="0.00" timeLoss="0.25" rerouteNo="0" devices="tripinfo_S_20" vType="car7@S_20" speedFactor="1.02" vaporized=""/>
    <tripinfo id="S_10" depart="3.00" departLane="3_1" departPos="6.10" departSpeed="11.18" departDelay="0.00" arrival="49.10" arrivalLane="-1_2" arrivalPos="200.00" arrivalSpeed="11.18" duration="46.10" routeLength="487.87" waitingTime="0.00" waitingCount="0" stopTime="0.00" timeLoss="-0.11" rerouteNo="0" devices="tripinfo_S_10" vType="car6@S_10" speedFactor="1.09" vaporized=""/>
    <tripinfo id="R_39" depart="11.00" departLane="4_0" departPos="7.10" departSpeed="11.18" departDelay="0.00" arrival="49.20" arrivalLane="-3_0" arrivalPos="200.00" arrivalSpeed="11.18" duration="38.20" routeLength="426.58" waitingTime="0.00" waitingCount="0" stopTime="0.00" timeLoss="-0.97" rerouteNo="0" devices="tripinfo_R_39" vType="car7@R_39" speedFactor="0.90" vaporized=""/>
    <tripinfo id="S_13" depart="4.50" departLane="3_2" departPos="9.10" departSpeed="11.18" departDelay="0.50" arrival="51.00" arrivalLane="-1_0" arrivalPos="200.00" arrivalSpeed="11.18" duration="46.50" routeLength="467.51" waitingTime="3.70" waitingCount="1" stopTime="0.00" timeLoss="-4526.94" rerouteNo="0" devices="tripinfo_S_13" vType="car9@S_13" speedFactor="1.12" vaporized=""/>
    <tripinfo id="R_36" depart="11.00" departLane="1_1" departPos="6.10" departSpeed="11.18" departDelay="0.00" arrival="52.30" arrivalLane="-4_0" arrivalPos="200.00" arrivalSpeed="11.18" duration="41.30" routeLength="427.44" waitingTime="1.20" waitingCount="1" stopTime="0.00" timeLoss="2.37" rerouteNo="0" devices="tripinfo_R_36" vType="car6@R_36" speedFactor="0.97" vaporized=""/>
    <tripinfo id="R_18" depart="12.60" departLane="2_1" departPos="9.10" departSpeed="11.18" departDelay="6.60" arrival="53.50" arrivalLane="-1_0" arrivalPos="200.00" arrivalSpeed="11.18" duration="40.90" routeLength="424.70" waitingTime="0.00" waitingCount="0" stopTime="0.00" timeLoss="1.80" rerouteNo="0" devices="tripinfo_R_18" vType="car9@R_18" speedFactor="0.94" vaporized=""/>
    <tripinfo id="S_33" depart="10.00" departLane="2_0" departPos="7.10" departSpeed="11.18" departDelay="0.00" arrival="53.50" arrivalLane="-4_1" arrivalPos="200.00" arrivalSpeed="11.18" duration="43.50" routeLength="477.97" waitingTime="0.00" waitingCount="0" stopTime="0.00" timeLoss="-0.03" rerouteNo="0" devices="tripinfo_S_33" vType="car7@S_33" speedFactor="1.17" vaporized=""/>
    <tripinfo id="S_17" depart="6.40" departLane="1_0" departPos="8.10" departSpeed="11.18" departDelay="0.40" arrival="54.50" arrivalLane="-3_0" arrivalPos="200.00" arrivalSpeed="11.18" duration="48.10" routeLength="468.46" waitingTime="4.70" waitingCount="1" stopTime="0.00" timeLoss="5.32" rerouteNo="0" devices="tripinfo_S_17" vType="car8@S_17" speedFactor="0.94" vaporized=""/>
    <tripinfo id="R_40" depart="12.50" departLane="1_0" departPos="6.10" departSpeed="11.18" departDelay="0.50" arrival="54.50" arrivalLane="-4_1" arrivalPos="200.00" arrivalSpeed="11.18" duration="42.00" routeLength="436.72" waitingTime="0.00" waitingCount="0" stopTime="0.00" timeLoss="-0.29" rerouteNo="0" devices="tripinfo_R_40" vType="car6@R_40" speedFactor="1.03" vaporized=""/>
    <tripinfo id="S_29" depart="9.00" departLane="1_1" departPos="5.10" departSpeed="11.18" departDelay="0.00" arrival="54.90" arrivalLane="-3_1" arrivalPos="200.00" arrivalSpeed="11.18" duration="45.90" routeLength="480.03" waitingTime="0.00" waitingCount="0" stopTime="0.00" timeLoss="-1.09" rerouteNo="0" devices="tripinfo_S_29" vType="car5@S_29" speedFactor="0.93" vaporized=""/>
    <tripinfo id="S_32" depart="10.00" departLane="1_0" departPos="5.10" departSpeed="11.18" departDelay="0.00" arrival="55.50" arrivalLane="-3_0" arrivalPos="200.00" arrivalSpeed="11.18" duration="45.50" routeLength="471.46" waitingTime="2.10" waitingCount="1" stopTime="0.00" timeLoss="2.62" rerouteNo="0" devices="tripinfo_S_32" vType="car5@S_32" speedFactor="1.01" vaporized=""/>
    <tripinfo id="L_9" depart="3.00" departLane="2_0" departPos="6.10" departSpeed="11.18" departDelay="0.00" arrival="55.60" arrivalLane="-3_2" arrivalPos="200.00" arrivalSpeed="11.18" duration="52.60" routeLength="529.12" waitingTime="0.00" waitingCount="0" stopTime="0.00" timeLoss="-3.55" rerouteNo="0" devices="tripinfo_L_9" vType="car6@L_9" speedFactor="0.86" vaporized=""/>
    <tripinfo id="S_41" depart="12.00" departLane="2_0" departPos="8.10" departSpeed="11.18" departDelay="0.00" arrival="56.40" arrivalLane="-4_0" arrivalPos="200.00" arrivalSpeed="11.18" duration="44.40" routeLength="468.41" waitingTime="0.00" waitingCount="0" stopTime="0.00" timeLoss="-1.28" rerouteNo="0" devices="tripinfo_S_41" vType="car8@S_41" speedFactor="0.96" vaporized=""/>
    <tripinfo id="S_45" depart="13.00" departLane="3_2" departPos="9.10" departSpeed="11.18" departDelay="0.00" arrival="56.40" arrivalLane="-1_2" arrivalPos="200.00" arrivalSpeed="11.18" duration="43.40" routeLength="484.87" waitingTime="0.00" waitingCount="0" stopTime="0.00" timeLoss="0.00" rerouteNo="0" devices="tripinfo_S_45" vType="car9@S_45" speedFactor="1.09" vaporized=""/>
    <tripinfo id="L_8" depart="3.00" departLane="1_2" departPos="6.10" departSpeed="11.18" departDelay="0.00" arrival="56.60" arrivalLane="-2_0" arrivalPos="200.00" arrivalSpeed="11.18" duration="53.60" routeLength="513.33" waitingTime="6.80" waitingCount="1" stopTime="0.00" timeLoss="-4180.88" rerouteNo="0" devices="tripinfo_L_8" vType="car6@L_8" speedFactor="0.94" vaporized=""/>
    <tripinfo id="S_37" depart="11.10" departLane="2_0" departPos="5.10" departSpeed="11.18" departDelay="0.10" arrival="56.90" arrivalLane="-4_1" arrivalPos="200.00" arrivalSpeed="11.18" duration="45.80" routeLength="479.97" waitingTime="0.00" waitingCount="0" stopTime="0.00" timeLoss="-0.13" rerouteNo="0" devices="tripinfo_S_37" vType="car5@S_37" speedFactor="1.18" vaporized=""/>
    <tripinfo id="L_14" depart="5.00" departLane="1_2" departPos="7.10" departSpeed="11.18" departDelay="0.00" arrival="57.50" arrivalLane="-2_0" arrivalPos="200.00" arrivalSpeed="11.18" duration="52.50" routeLength="512.33" waitingTime="5.40" waitingCount="1" stopTime="0.00" timeLoss="5.94" rerouteNo="0" devices="tripinfo_L_14" vType="car7@L_14" speedFactor="0.99" vaporized=""/>
    <tripinfo id="R_47" depart="15.20" departLane="1_2" departPos="6.10" departSpeed="11.18" departDelay="1.20" arrival="57.50" arrivalLane="-4_0" arrivalPos="200.00" arrivalSpeed="11.18" duration="42.30" routeLength="427.44" waitingTime="0.00" waitingCount="0" stopTime="0.00" timeLoss="1.56" rerouteNo="0" devices="tripinfo_R_47" vType="car6@R_47" speedFactor="0.90" vaporized=""/>
    <tripinfo id="L_5" depart="2.00" departLane="2_1" departPos="9.10" departSpeed="11.18" departDelay="0.00" arrival="57.60" arrivalLane="-3_2" arrivalPos="200.00" arrivalSpeed="11.18" duration="55.60" routeLength="526.12" waitingTime="0.10" waitingCount="1" stopTime="0.00" timeLoss="-4934.00" rerouteNo="0" devices="tripinfo_L_5" vType="car9@L_5" speedFactor="0.83" vaporized=""/>
    <tripinfo id="L_21" depart="7.00" departLane="1_2" departPos="8.10" departSpeed="11.18" departDelay="0.00" arrival="57.60" arrivalLane="-2_2" arrivalPos="200.00" arrivalSpeed="11.18" duration="50.60" routeLength="527.30" waitingTime="2.50" waitingCount="1" stopTime="0.00" timeLoss="-4405.61" rerouteNo="0" devices="tripinfo_L_21" vType="car8@L_21" speedFactor="1.01" vaporized=""/>
    <tripinfo id="S_44" depart="15.30" departLane="2_1" departPos="5.10" departSpeed="11.18" departDelay="2.30" arrival="58.30" arrivalLane="-4_1" arrivalPos="200.00" arrivalSpeed="11.18" duration="43.00" routeLength="479.97" waitingTime="0.00" waitingCount="0" stopTime="0.00" timeLoss="-0.26" rerouteNo="0" devices="tripinfo_S_44" vType="car5@S_44" speedFactor="1.04" vaporized=""/>
    <tripinfo id="R_62" depart="18.00" departLane="2_1" departPos="7.10" departSpeed="11.18" departDelay="0.00" arrival="58.70" arrivalLane="-1_0" arrivalPos="200.00" arrivalSpeed="11.18" duration="40.70" routeLength="426.70" waitingTime="0.00" waitingCount="0" stopTime="0.00" timeLoss="1.87" rerouteNo="0" devices="tripinfo_R_62" vType="car7@R_62" speedFactor="1.02" vaporized=""/>
    <tripinfo id="S_43" depart="13.00" departLane="1_2" departPos="5.10" departSpeed="11.18" departDelay="0.00" arrival="59.10" arrivalLane="-3_0" arrivalPos="200.00" arrivalSpeed="11.18" duration="46.10" routeLength="471.46" waitingTime="0.00" waitingCount="0" stopTime="0.00" timeLoss="2.09" rerouteNo="0" devices="tripinfo_S_43" vType="car5@S_43" speedFactor="1.04" vaporized=""/>
    <tripinfo id="S_25" depart="8.50" departLane="1_2" departPos="9.10" departSpeed="11.18" departDelay="0.50" arrival="59.90" arrivalLane="-3_2" arrivalPos="200.00" arrivalSpeed="11.18" duration="51.40" routeLength="484.61" waitingTime="6.40" waitingCount="2" stopTime="0.00" timeLoss="-4061.05" rerouteNo="0" devices="tripinfo_S_25" vType="car9@S_25" speedFactor="0.87" vaporized=""/>
    <tripinfo id="S_34" depart="15.10" departLane="3_0" departPos="5.10" departSpeed="11.18" departDelay="5.10" arrival="60.00" arrivalLane="-1_2" arrivalPos="200.00" arrivalSpeed="11.18" duration="44.90" routeLength="488.87" waitingTime="0.50" waitingCount="2" stopTime="0.00" timeLoss="0.95" rerouteNo="0" devices="tripinfo_S_34" vType="car5@S_34" speedFactor="0.99" vaporized=""/>
    <tripinfo id="R_74" depart="21.00" departLane="2_2" departPos="5.10" departSpeed="11.18" departDelay="0.00" arrival="60.80" arrivalLane="-1_0" arrivalPos="200.00" arrivalSpeed="11.18" duration="39.80" routeLength="428.70" waitingTime="0.00" waitingCount="0" stopTime="0.00" timeLoss="0.54" rerouteNo="0" devices="tripinfo_R_74" vType="car5@R_74" speedFactor="0.96" vaporized=""/>
    <tripinfo id="S_52" depart="17.50" departLane="2_0" departPos="7.10" departSpeed="11.18" departDelay="2.50" arrival="60.90" arrivalLane="-4_0" arrivalPos="200.00" arrivalSpeed="11.18" duration="43.40" routeLength="469.41" waitingTime="0.00" waitingCount="0" stopTime="0.00" timeLoss="-0.62" rerouteNo="0" devices="tripinfo_S_52" vType="car7@S_52" speedFactor="1.02" vaporized=""/>
    <tripinfo id="R_60" depart="17.00" departLane="4_2" departPos="6.10" departSpeed="11.18" departDelay="0.00" arrival="61.70" arrivalLane="-3_0" arrivalPos="200.00" arrivalSpeed="11.18" duration="44.70" routeLength="427.58" waitingTime="3.70" waitingCount="1" stopTime="0.00" timeLoss="5.92" rerouteNo="0" devices="tripinfo_R_60" vType="car6@R_60" speedFactor="1.08" vaporized=""/>
    <tripinfo id="R_49" depart="14.00" departLane="3_1" departPos="5.10" departSpeed="11.18" departDelay="0.00" arrival="62.00" arrivalLane="-2_0" arrivalPos="200.00" arrivalSpeed="11.18" duration="48.00" routeLength="428.69" waitingTime="8.70" waitingCount="1" stopTime="0.00" timeLoss="8.51" rerouteNo="0" devices="tripinfo_R_49" vType="car5@R_49" speedFactor="0.85" vaporized=""/>
    <tripinfo id="R_53" depart="15.00" departLane="3_2" departPos="8.10" departSpeed="11.18" departDelay="0.00" arrival="62.70" arrivalLane="-2_0" arrivalPos="200.00" arrivalSpeed="11.18" duration="47.70" routeLength="425.69" waitingTime="7.50" waitingCount="1" stopTime="0.00" timeLoss="9.11" rerouteNo="0" devices="tripinfo_R_53" vType="car8@R_53" speedFactor="1.10" vaporized=""/>
    <tripinfo id="S_65" depart="19.00" departLane="1_2" departPos="5.10" departSpeed="11.18" departDelay="0.00" arrival="63.00" arrivalLane="-3_0" arrivalPos="200.00" arrivalSpeed="11.18" duration="44.00" routeLength="471.46" waitingTime="0.00" waitingCount="0" stopTime="0.00" timeLoss="-0.48" rerouteNo="0" devices="tripinfo_S_65" vType="car5@S_65" speedFactor="0.88" vaporized=""/>
    <tripinfo id="S_61" depart="18.00" departLane="1_2" departPos="7.10" departSpeed="11.18" departDelay="0.00" arrival="63.60" arrivalLane="-3_1" arrivalPos="200.00" arrivalSpeed="11.18" duration="45.60" routeLength="478.03" waitingTime="0.00" waitingCount="0" stopTime="0.00" timeLoss="-0.27" rerouteNo="0" devices="tripinfo_S_61" vType="car7@S_61" speedFactor="1.12" vaporized=""/>
    <tripinfo id="R_92" depart="26.00" departLane="1_1" departPos="6.10" departSpeed="11.18" departDelay="0.00" arrival="64.30" arrivalLane="-4_0" arrivalPos="200.00" arrivalSpeed="11.18" duration="38.30" routeLength="427.44" waitingTime="0.00" waitingCount="0" stopTime="0.00" timeLoss="-1.12" rerouteNo="0" devices="tripinfo_R_92" vType="car6@R_92" speedFactor="0.83" vaporized=""/>
    <tripinfo id="S_50" depart="14.00" departLane="4_0" departPos="9.10" departSpeed="11.18" departDelay="0.00" arrival="64.50" arrivalLane="-2_0" arrivalPos="200.00" arrivalSpeed="11.18" duration="50.50" routeLength="467.45" waitingTime="5.90" waitingCount="1" stopTime="0.00" timeLoss="-4869.58" rerouteNo="0" devices="tripinfo_S_50" vType="car9@S_50" speedFactor="0.85" vaporized=""/>
    <tripinfo id="S_35" depart="10.00" departLane="4_2" departPos="5.10" departSpeed="11.18" departDelay="0.00" arrival="65.00" arrivalLane="-2_2" arrivalPos="200.00" arrivalSpeed="11.18" duration="55.00" routeLength="488.95" waitingTime="9.10" waitingCount="2" stopTime="0.00" timeLoss="-4834.33" rerouteNo="0" devices="tripinfo_S_35" vType="car5@S_35" speedFactor="1.02" vaporized=""/>
    <tripinfo id="S_30" depart="9.00" departLane="3_2" departPos="5.10" departSpeed="11.18" departDelay="0.00" arrival="65.10" arrivalLane="-1_0" arrivalPos="200.00" arrivalSpeed="11.18" duration="56.10" routeLength="471.51" waitingTime="9.40" waitingCount="1" stopTime="0.00" timeLoss="13.56" rerouteNo="0" devices="tripinfo_S_30" vType="car5@S_30" speedFactor="1.18" vaporized=""/>
    <tripinfo id="S_46" depart="13.00" departLane="4_1" departPos="8.10" departSpeed="11.18" departDelay="0.00" arrival="65.70" arrivalLane="-2_2" arrivalPos="200.00" arrivalSpeed="11.18" duration="52.70" routeLength="485.95" waitingTime="7.10" waitingCount="2" stopTime="0.00" timeLoss="9.16" rerouteNo="0" devices="tripinfo_S_46" vType="car8@S_46" speedFactor="1.00" vaporized=""/>
    <tripinfo id="R_59" depart="17.20" departLane="3_1" departPos="5.10" departSpeed="11.18" departDelay="0.20" arrival="65.80" arrivalLane="-2_0" arrivalPos="200.00" arrivalSpeed="11.18" duration="48.60" routeLength="428.69" waitingTime="7.60" waitingCount="2" stopTime="0.00" timeLoss="-4183.99" rerouteNo="0" devices="tripinfo_R_59" vType="car5@R_59" speedFactor="0.97" vaporized=""/>
    <tripinfo id="S_73" depart="22.00" departLane="1_0" departPos="8.10" departSpeed="11.18" departDelay="1.00" arrival="65.90" arrivalLane="-3_0" arrivalPos="200.00" arrivalSpeed="11.18" duration="43.90" routeLength="468.46" waitingTime="0.00" waitingCount="0" stopTime="0.00" timeLoss="-0.75" rerouteNo="0" devices="tripinfo_S_73" vType="car8@S_73" speedFactor="1.06" vaporized=""/>
    <tripinfo id="L_28" depart="8.00" departLane="4_1" departPos="9.10" departSpeed="11.18" departDelay="0.00" arrival="66.00" arrivalLane="-1_1" arrivalPos="200.00" arrivalSpeed="11.18" duration="58.00" routeLength="518.29" waitingTime="10.70" waitingCount="1" stopTime="0.00" timeLoss="-4526.58" rerouteNo="0" devices="tripinfo_L_28" vType="car9@L_28" speedFactor="1.13" vaporized=""/>
    <tripinfo id="R_58" depart="18.70" departLane="2_0" departPos="6.10" departSpeed="11.18" departDelay="1.70" arrival="66.00" arrivalLane="-1_0" arrivalPos="200.00" arrivalSpeed="11.18" duration="47.30" routeLength="427.70" waitingTime="0.00" waitingCount="0" stopTime="0.00" timeLoss="4.61" rerouteNo="0" devices="tripinfo_R_58" vType="car6@R_58" speedFactor="1.02" vaporized=""/>
    <tripinfo id="L_19" depart="6.00" departLane="3_1" departPos="8.10" departSpeed="11.18" departDelay="0.00" arrival="66.10" arrivalLane="-4_0" arrivalPos="200.00" arrivalSpeed="11.18" duration="60.10" routeLength="511.22" waitingTime="12.50" waitingCount="2" stopTime="0.00" timeLoss="-4730.49" rerouteNo="0" devices="tripinfo_L_19" vType="car8@L_19" speedFactor="1.16" vaporized=""/>
    <tripinfo id="L_24" depart="7.00" departLane="4_1" departPos="7.10" departSpeed="11.18" departDelay="0.00" arrival="66.30" arrivalLane="-1_2" arrivalPos="200.00" arrivalSpeed="11.18" duration="59.30" routeLength="528.29" waitingTime="11.10" waitingCount="1" stopTime="0.00" timeLoss="-4296.33" rerouteNo="0" devices="tripinfo_L_24" vType="car7@L_24" speedFactor="0.83" vaporized=""/>
    <tripinfo id="R_42" depart="20.10" departLane="3_0" departPos="6.10" departSpeed="11.18" departDelay="8.10" arrival="66.50" arrivalLane="-2_0" arrivalPos="200.00" arrivalSpeed="11.18" duration="46.40" routeLength="427.69" waitingTime="6.30" waitingCount="2" stopTime="0.00" timeLoss="7.63" rerouteNo="0" devices="tripinfo_R_42" vType="car6@R_42" speedFactor="1.09" vaporized=""/>
    <tripinfo id="S_54" depart="15.00" departLane="4_2" departPos="9.10" departSpeed="11.18" departDelay="0.00" arrival="66.70" arrivalLane="-2_2" arrivalPos="200.00" arrivalSpeed="11.18" duration="51.70" routeLength="484.95" waitingTime="6.10" waitingCount="2" stopTime="0.00" timeLoss="8.21" rerouteNo="0" devices="tripinfo_S_54" vType="car9@S_54" speedFactor="1.00" vaporized=""/>
    <tripinfo id="R_78" depart="22.00" departLane="2_2" departPos="5.10" departSpeed="11.18" departDelay="0.00" arrival="66.80" arrivalLane="-1_0" arrivalPos="200.00" arrivalSpeed="11.18" duration="44.80" routeLength="428.70" waitingTime="0.00" waitingCount="0" stopTime="0.00" timeLoss="5.22" rerouteNo="0" devices="tripinfo_R_78" vType="car5@R_78" speedFactor="1.01" vaporized=""/>
    <tripinfo id="S_85" depart="24.00" departLane="1_1" departPos="8.10" departSpeed="11.18" departDelay="0.00" arrival="66.80" arrivalLane="-3_0" arrivalPos="200.00" arrivalSpeed="11.18" duration="42.80" routeLength="468.46" waitingTime="0.00" waitingCount="0" stopTime="0.00" timeLoss="-0.58" rerouteNo="0" devices="tripinfo_S_85" vType="car8@S_85" speedFactor="0.98" vaporized=""/>
    <tripinfo id="L_23" depart="7.50" departLane="3_0" departPos="9.10" departSpeed="11.18" departDelay="0.50" arrival="67.10" arrivalLane="-4_0" arrivalPos="200.00" arrivalSpeed="11.18" duration="59.60" routeLength="510.22" waitingTime="11.90" waitingCount="2" stopTime="0.00" timeLoss="12.90" rerouteNo="0" devices="tripinfo_L_23" vType="car9@L_23" speedFactor="0.89" vaporized=""/>
    <tripinfo id="L_38" depart="19.70" departLane="3_0" departPos="5.10" departSpeed="11.18" departDelay="8.70" arrival="67.10" arrivalLane="-4_2" arrivalPos="200.00" arrivalSpeed="11.18" duration="47.40" routeLength="530.01" waitingTime="0.00" waitingCount="0" stopTime="0.00" timeLoss="0.00" rerouteNo="0" devices="tripinfo_L_38" vType="car5@L_38" speedFactor="1.10" vaporized=""/>
    <tripinfo id="R_104" depart="29.00" departLane="2_2" departPos="7.10" departSpeed="11.18" departDelay="0.00" arrival="67.60" arrivalLane="-1_0" arrivalPos="200.00" arrivalSpeed="11.18" duration="38.60" routeLength="426.70" waitingTime="0.00" waitingCount="0" stopTime="0.00" timeLoss="-0.63" rerouteNo="0" devices="tripinfo_R_104" vType="car7@R_104" speedFactor="0.89" vaporized=""/>
    <tripinfo id="L_27" depart="8.00" departLane="3_1" departPos="6.10" departSpeed="11.18" departDelay="0.00" arrival="68.10" arrivalLane="-4_0" arrivalPos="200.00" arrivalSpeed="11.18" duration="60.10" routeLength="513.22" waitingTime="10.70" waitingCount="2" stopTime="0.00" timeLoss="13.36" rerouteNo="0" devices="tripinfo_L_27" vType="car6@L_27" speedFactor="0.95" vaporized=""/>
    <tripinfo id="S_80" depart="22.00" departLane="4_1" departPos="6.10" departSpeed="11.18" departDelay="0.00" arrival="68.30" arrivalLane="-2_0" arrivalPos="200.00" arrivalSpeed="11.18" duration="46.30" routeLength="470.45" waitingTime="2.10" waitingCount="2" stopTime="0.00" timeLoss="-4782.13" rerouteNo="0" devices="tripinfo_S_80" vType="car6@S_80" speedFactor="1.03" vaporized=""/>
    <tripinfo id="R_15" depart="5.00" departLane="2_1" departPos="6.10" departSpeed="11.18" departDelay="0.00" arrival="68.70" arrivalLane="-1_2" arrivalPos="200.00" arrivalSpeed="11.18" duration="63.70" routeLength="446.37" waitingTime="17.70" waitingCount="5" stopTime="0.00" timeLoss="23.42" rerouteNo="0" devices="tripinfo_R_15" vType="car6@R_15" speedFactor="0.93" vaporized=""/>
    <tripinfo id="R_68" depart="25.60" departLane="4_2" departPos="8.10" departSpeed="11.18" departDelay="6.60" arrival="68.80" arrivalLane="-3_0" arrivalPos="200.00" arrivalSpeed="11.18" duration="43.20" routeLength="425.58" waitingTime="2.70" waitingCount="3" stopTime="0.00" timeLoss="4.47" rerouteNo="0" devices="tripinfo_R_68" vType="car8@R_68" speedFactor="1.04" vaporized=""/>
    <tripinfo id="R_99" depart="28.00" departLane="1_0" departPos="9.10" departSpeed="11.18" departDelay="0.00" arrival="69.10" arrivalLane="-4_0" arrivalPos="200.00" arrivalSpeed="11.18" duration="41.10" routeLength="424.44" waitingTime="0.00" waitingCount="0" stopTime="0.00" timeLoss="-1.90" rerouteNo="0" devices="tripinfo_R_99" vType="car9@R_99" speedFactor="1.10" vaporized=""/>
    <tripinfo id="R_75" depart="21.00" departLane="3_1" departPos="7.10" departSpeed="11.18" departDelay="0.00" arrival="69.30" arrivalLane="-2_0" arrivalPos="200.00" arrivalSpeed="11.18" duration="48.30" routeLength="426.69" waitingTime="5.00" waitingCount="3" stopTime="0.00" timeLoss="-4222.92" rerouteNo="0" devices="tripinfo_R_75" vType="car7@R_75" speedFactor="0.98" vaporized=""/>
    <tripinfo id="R_103" depart="29.00" departLane="1_2" departPos="7.10" departSpeed="11.18" departDelay="0.00" arrival="70.20" arrivalLane="-4_0" arrivalPos="200.00" arrivalSpeed="11.18" duration="41.20" routeLength="426.44" waitingTime="0.00" waitingCount="0" stopTime="0.00" timeLoss="2.20" rerouteNo="0" devices="tripinfo_R_103" vType="car7@R_103" speedFactor="0.95" vaporized=""/>
    <tripinfo id="R_88" depart="26.10" departLane="4_0" departPos="9.10" departSpeed="11.18" departDelay="2.10" arrival="70.90" arrivalLane="-3_0" arrivalPos="200.00" arrivalSpeed="11.18" duration="44.80" routeLength="424.58" waitingTime="1.60" waitingCount="1" stopTime="0.00" timeLoss="5.88" rerouteNo="0" devices="tripinfo_R_88" vType="car9@R_88" speedFactor="1.01" vaporized=""/>
    <tripinfo id="S_96" depart="27.00" departLane="2_1" departPos="9.10" departSpeed="11.18" departDelay="0.00" arrival="71.00" arrivalLane="-4_1" arrivalPos="200.00" arrivalSpeed="11.18" duration="44.00" routeLength="475.97" waitingTime="0.00" waitingCount="0" stopTime="0.00" timeLoss="-0.43" rerouteNo="0" devices="tripinfo_S_96" vType="car9@S_96" speedFactor="1.01" vaporized=""/>
    <tripinfo id="R_115" depart="32.30" departLane="1_1" departPos="7.10" departSpeed="11.18" departDelay="0.30" arrival="71.10" arrivalLane="-4_0" arrivalPos="200.00" arrivalSpeed="11.18" duration="38.80" routeLength="426.44" waitingTime="0.00" waitingCount="0" stopTime="0.00" timeLoss="-0.28" rerouteNo="0" devices="tripinfo_R_115" vType="car7@R_115" speedFactor="0.92" vaporized=""/>
    <tripinfo id="S_83" depart="23.00" departLane="3_2" departPos="5.10" departSpeed="11.18" departDelay="0.00" arrival="71.60" arrivalLane="-1_2" arrivalPos="200.00" arrivalSpeed="11.18" duration="48.60" routeLength="488.87" waitingTime="0.00" waitingCount="0" stopTime="0.00" timeLoss="-1.34" rerouteNo="0" devices="tripinfo_S_83" vType="car5@S_83" speedFactor="0.97" vaporized=""/>
    <tripinfo id="S_84" depart="23.00" departLane="4_1" departPos="6.10" departSpeed="11.18" departDelay="0.00" arrival="71.80" arrivalLane="-2_0" arrivalPos="200.00" arrivalSpeed="11.18" duration="48.80" routeLength="470.45" waitingTime="2.90" waitingCount="3" stopTime="0.00" timeLoss="-4716.21" rerouteNo="0" devices="tripinfo_S_84" vType="car6@S_84" speedFactor="1.15" vaporized=""/>
    <tripinfo id="R_102" depart="29.40" departLane="4_1" departPos="8.10" departSpeed="11.18" departDelay="1.40" arrival="72.00" arrivalLane="-3_0" arrivalPos="200.00" arrivalSpeed="11.18" duration="42.60" routeLength="425.58" waitingTime="0.00" waitingCount="0" stopTime="0.00" timeLoss="3.63" rerouteNo="0" devices="tripinfo_R_102" vType="car8@R_102" speedFactor="0.97" vaporized=""/>
    <tripinfo id="R_111" depart="31.00" departLane="1_2" departPos="8.10" departSpeed="11.18" departDelay="0.00" arrival="72.20" arrivalLane="-4_1" arrivalPos="200.00" arrivalSpeed="11.18" duration="41.20" routeLength="434.72" waitingTime="0.00" waitingCount="0" stopTime="0.00" timeLoss="-0.92" rerouteNo="0" devices="tripinfo_R_111" vType="car8@R_111" speedFactor="0.87" vaporized=""/>
    <tripinfo id="S_22" depart="7.00" departLane="2_0" departPos="7.10" departSpeed="11.18" departDelay="0.00" arrival="73.20" arrivalLane="-4_2" arrivalPos="200.00" arrivalSpeed="11.18" duration="66.20" routeLength="486.51" waitingTime="18.50" waitingCount="3" stopTime="0.00" timeLoss="22.48" rerouteNo="0" devices="tripinfo_S_22" vType="car7@S_22" speedFactor="0.98" vaporized=""/>