<?xml version="1.0" encoding="UTF-8"?>

<!-- generated on 09/06/20 23:28:25 by Eclipse SUMO GUI Version 1.6.0
<configuration xmlns:xsi="http://www.w3.org/2001/XMLSchema-instance" xsi:noNamespaceSchemaLocation="http://sumo.dlr.de/xsd/sumoConfiguration.xsd">

    <input>
        <net-file value="data/two_inter.net.xml"/>
        <route-files value="data/icacc+.rou.xml"/>
    </input>

    <output>
        <tripinfo-output value="tripinfo.xml"/>
    </output>

    <time>
        <begin value="0"/>
        <step-length value="0.1"/>
    </time>

    <processing>
        <collision.mingap-factor value="0"/>
        <time-to-teleport value="-1"/>
        <lanechange.duration value="0.5"/>
        <default.speeddev value="1"/>
    </processing>

    <report>
        <verbose value="true"/>
        <no-step-log value="true"/>
    </report>

    <traci_server>
        <remote-port value="5124"/>
    </traci_server>

    <gui_only>
        <start value="true"/>
        <tracker-interval value="0.1"/>
    </gui_only>

</configuration>
-->

<tripinfos xmlns:xsi="http://www.w3.org/2001/XMLSchema-instance" xsi:noNamespaceSchemaLocation="http://sumo.dlr.de/xsd/tripinfo_file.xsd">
    <tripinfo id="RX_0" depart="0.00" departLane="001_001_1_0" departPos="6.10" departSpeed="11.18" departDelay="0.00" arrival="36.10" arrivalLane="001_000_2_0" arrivalPos="200.00" arrivalSpeed="11.18" duration="36.10" routeLength="402.93" waitingTime="0.00" waitingCount="0" stopTime="0.00" timeLoss="-2.20" rerouteNo="1" devices="tripinfo_RX_0" vType="car6@RX_0" speedFactor="1.60" vaporized=""/>
    <tripinfo id="RX_2" depart="0.00" departLane="002_001_4_1" departPos="6.10" departSpeed="11.18" departDelay="0.00" arrival="36.10" arrivalLane="003_001_1_0" arrivalPos="200.00" arrivalSpeed="11.18" duration="36.10" routeLength="402.93" waitingTime="0.00" waitingCount="0" stopTime="0.00" timeLoss="-2.55" rerouteNo="1" devices="tripinfo_RX_2" vType="car6@RX_2" speedFactor="1.10" vaporized=""/>
    <tripinfo id="RX_3" depart="1.20" departLane="001_001_1_0" departPos="6.10" departSpeed="11.18" departDelay="0.20" arrival="37.30" arrivalLane="001_000_2_0" arrivalPos="200.00" arrivalSpeed="11.18" duration="36.10" routeLength="402.93" waitingTime="0.00" waitingCount="0" stopTime="0.00" timeLoss="-2.20" rerouteNo="1" devices="tripinfo_RX_3" vType="car6@RX_3" speedFactor="1.83" vaporized=""/>
    <tripinfo id="SX_1" depart="0.00" departLane="001_001_2_0" departPos="7.10" departSpeed="11.18" departDelay="0.00" arrival="37.60" arrivalLane="001_000_2_2" arrivalPos="200.00" arrivalSpeed="11.18" duration="37.60" routeLength="420.10" waitingTime="0.00" waitingCount="0" stopTime="0.00" timeLoss="0.00" rerouteNo="1" devices="tripinfo_SX_1" vType="car7@SX_1" speedFactor="1.60" vaporized=""/>
    <tripinfo id="RX_6" depart="2.00" departLane="002_001_3_0" departPos="7.10" departSpeed="11.18" departDelay="0.00" arrival="38.00" arrivalLane="002_002_4_0" arrivalPos="200.00" arrivalSpeed="11.18" duration="36.00" routeLength="401.93" waitingTime="0.00" waitingCount="0" stopTime="0.00" timeLoss="-2.67" rerouteNo="1" devices="tripinfo_RX_6" vType="car7@RX_6" speedFactor="1.00" vaporized=""/>
    <tripinfo id="RX_4" depart="1.40" departLane="002_001_4_0" departPos="8.10" departSpeed="11.18" departDelay="0.40" arrival="38.20" arrivalLane="003_001_1_2" arrivalPos="200.00" arrivalSpeed="11.18" duration="36.80" routeLength="411.26" waitingTime="0.00" waitingCount="0" stopTime="0.00" timeLoss="-2.31" rerouteNo="1" devices="tripinfo_RX_4" vType="car8@RX_4" speedFactor="1.30" vaporized=""/>
    <tripinfo id="LX_5" depart="2.00" departLane="002_001_2_1" departPos="8.10" departSpeed="11.18" departDelay="0.00" arrival="39.70" arrivalLane="003_001_1_2" arrivalPos="200.00" arrivalSpeed="11.18" duration="37.70" routeLength="415.11" waitingTime="0.00" waitingCount="0" stopTime="0.00" timeLoss="-2.37" rerouteNo="1" devices="tripinfo_LX_5" vType="car8@LX_5" speedFactor="1.46" vaporized=""/>
    <tripinfo id="RX_17" depart="4.00" departLane="002_001_3_1" departPos="9.10" departSpeed="11.18" departDelay="0.00" arrival="39.80" arrivalLane="002_002_4_0" arrivalPos="200.00" arrivalSpeed="11.18" duration="35.80" routeLength="399.93" waitingTime="0.00" waitingCount="0" stopTime="0.00" timeLoss="-2.21" rerouteNo="1" devices="tripinfo_RX_17" vType="car9@RX_17" speedFactor="1.91" vaporized=""/>
    <tripinfo id="RX_14" depart="4.10" departLane="001_001_2_2" departPos="5.10" departSpeed="11.18" departDelay="0.10" arrival="40.30" arrivalLane="000_001_3_0" arrivalPos="200.00" arrivalSpeed="11.18" duration="36.20" routeLength="403.93" waitingTime="0.00" waitingCount="0" stopTime="0.00" timeLoss="-2.47" rerouteNo="1" devices="tripinfo_RX_14" vType="car5@RX_14" speedFactor="1.18" vaporized=""/>
    <tripinfo id="SX_11" depart="3.00" departLane="002_001_2_0" departPos="6.10" departSpeed="11.18" departDelay="0.00" arrival="42.40" arrivalLane="002_000_2_1" arrivalPos="200.00" arrivalSpeed="11.18" duration="39.40" routeLength="421.10" waitingTime="0.00" waitingCount="0" stopTime="0.00" timeLoss="-0.21" rerouteNo="1" devices="tripinfo_SX_11" vType="car6@SX_11" speedFactor="1.83" vaporized=""/>
    <tripinfo id="LX_13" depart="4.00" departLane="001_001_1_1" departPos="7.10" departSpeed="11.18" departDelay="0.00" arrival="42.40" arrivalLane="001_002_4_2" arrivalPos="200.00" arrivalSpeed="11.18" duration="38.40" routeLength="416.12" waitingTime="0.00" waitingCount="0" stopTime="0.00" timeLoss="-1.52" rerouteNo="1" devices="tripinfo_LX_13" vType="car7@LX_13" speedFactor="1.46" vaporized=""/>
    <tripinfo id="LX_20" depart="5.50" departLane="001_001_4_1" departPos="5.10" departSpeed="11.18" departDelay="0.50" arrival="43.00" arrivalLane="000_001_3_2" arrivalPos="200.00" arrivalSpeed="11.18" duration="37.50" routeLength="418.11" waitingTime="0.00" waitingCount="0" stopTime="0.00" timeLoss="-2.36" rerouteNo="1" devices="tripinfo_LX_20" vType="car5@LX_20" speedFactor="1.47" vaporized=""/>
    <tripinfo id="SX_15" depart="4.40" departLane="001_001_4_0" departPos="8.10" departSpeed="11.18" departDelay="0.40" arrival="44.10" arrivalLane="001_002_4_1" arrivalPos="200.00" arrivalSpeed="11.18" duration="39.70" routeLength="419.10" waitingTime="0.00" waitingCount="0" stopTime="0.00" timeLoss="-0.17" rerouteNo="1" devices="tripinfo_SX_15" vType="car8@SX_15" speedFactor="1.10" vaporized=""/>
    <tripinfo id="SX_27" depart="7.00" departLane="001_001_2_2" departPos="6.10" departSpeed="11.18" departDelay="0.00" arrival="45.20" arrivalLane="001_000_2_1" arrivalPos="200.00" arrivalSpeed="11.18" duration="38.20" routeLength="421.10" waitingTime="0.00" waitingCount="0" stopTime="0.00" timeLoss="-0.01" rerouteNo="1" devices="tripinfo_SX_27" vType="car6@SX_27" speedFactor="1.43" vaporized=""/>
    <tripinfo id="SX_29" depart="7.00" departLane="002_001_2_0" departPos="5.10" departSpeed="11.18" departDelay="0.00" arrival="45.30" arrivalLane="002_000_2_2" arrivalPos="200.00" arrivalSpeed="11.18" duration="38.30" routeLength="422.10" waitingTime="0.00" waitingCount="0" stopTime="0.00" timeLoss="-0.01" rerouteNo="1" devices="tripinfo_SX_29" vType="car5@SX_29" speedFactor="1.00" vaporized=""/>
    <tripinfo id="SX_19" depart="5.30" departLane="001_001_2_0" departPos="6.10" departSpeed="11.18" departDelay="0.30" arrival="45.60" arrivalLane="001_000_2_2" arrivalPos="200.00" arrivalSpeed="11.18" duration="40.30" routeLength="421.10" waitingTime="1.50" waitingCount="1" stopTime="0.00" timeLoss="-4196.74" rerouteNo="1" devices="tripinfo_SX_19" vType="car6@SX_19" speedFactor="1.05" vaporized=""/>
    <tripinfo id="RX_35" depart="8.00" departLane="002_001_3_1" departPos="6.10" departSpeed="11.18" departDelay="0.00" arrival="45.60" arrivalLane="002_002_4_0" arrivalPos="200.00" arrivalSpeed="11.18" duration="37.60" routeLength="402.93" waitingTime="0.00" waitingCount="0" stopTime="0.00" timeLoss="-1.79" rerouteNo="1" devices="tripinfo_RX_35" vType="car6@RX_35" speedFactor="1.18" vaporized=""/>
    <tripinfo id="SX_23" depart="6.90" departLane="001_001_4_2" departPos="8.10" departSpeed="11.18" departDelay="0.90" arrival="46.90" arrivalLane="001_002_4_2" arrivalPos="200.00" arrivalSpeed="11.18" duration="40.00" routeLength="419.10" waitingTime="0.00" waitingCount="0" stopTime="0.00" timeLoss="-0.23" rerouteNo="1" devices="tripinfo_SX_23" vType="car8@SX_23" speedFactor="1.30" vaporized=""/>
    <tripinfo id="RX_42" depart="11.00" departLane="001_001_1_1" departPos="8.10" departSpeed="11.18" departDelay="0.00" arrival="46.90" arrivalLane="001_000_2_0" arrivalPos="200.00" arrivalSpeed="11.18" duration="35.90" routeLength="400.93" waitingTime="0.00" waitingCount="0" stopTime="0.00" timeLoss="-2.42" rerouteNo="1" devices="tripinfo_RX_42" vType="car8@RX_42" speedFactor="1.23" vaporized=""/>
    <tripinfo id="SX_28" depart="7.00" departLane="001_001_4_0" departPos="9.10" departSpeed="11.18" departDelay="0.00" arrival="47.40" arrivalLane="001_002_4_0" arrivalPos="200.00" arrivalSpeed="11.18" duration="40.40" routeLength="418.10" waitingTime="0.00" waitingCount="0" stopTime="0.00" timeLoss="-0.17" rerouteNo="1" devices="tripinfo_SX_28" vType="car9@SX_28" speedFactor="1.88" vaporized=""/>
    <tripinfo id="SX_36" depart="9.00" departLane="001_001_2_0" departPos="6.10" departSpeed="11.18" departDelay="0.00" arrival="48.10" arrivalLane="001_000_2_1" arrivalPos="200.00" arrivalSpeed="11.18" duration="39.10" routeLength="421.10" waitingTime="0.00" waitingCount="0" stopTime="0.00" timeLoss="-0.04" rerouteNo="1" devices="tripinfo_SX_36" vType="car6@SX_36" speedFactor="1.82" vaporized=""/>
    <tripinfo id="LX_24" depart="6.00" departLane="002_001_3_0" departPos="7.10" departSpeed="11.18" departDelay="0.00" arrival="48.30" arrivalLane="002_000_2_2" arrivalPos="200.00" arrivalSpeed="11.18" duration="42.30" routeLength="416.12" waitingTime="4.10" waitingCount="1" stopTime="0.00" timeLoss="-4297.95" rerouteNo="1" devices="tripinfo_LX_24" vType="car7@LX_24" speedFactor="1.00" vaporized=""/>
    <tripinfo id="RX_46" depart="12.50" departLane="001_001_1_0" departPos="9.10" departSpeed="11.18" departDelay="0.50" arrival="48.30" arrivalLane="001_000_2_0" arrivalPos="200.00" arrivalSpeed="11.18" duration="35.80" routeLength="399.93" waitingTime="0.00" waitingCount="0" stopTime="0.00" timeLoss="-2.66" rerouteNo="1" devices="tripinfo_RX_46" vType="car9@RX_46" speedFactor="1.05" vaporized=""/>
    <tripinfo id="RX_51" depart="12.10" departLane="002_001_4_2" departPos="5.10" departSpeed="11.18" departDelay="0.10" arrival="48.30" arrivalLane="003_001_1_0" arrivalPos="200.00" arrivalSpeed="11.18" duration="36.20" routeLength="403.93" waitingTime="0.00" waitingCount="0" stopTime="0.00" timeLoss="-2.20" rerouteNo="1" devices="tripinfo_RX_51" vType="car5@RX_51" speedFactor="1.87" vaporized=""/>
    <tripinfo id="RX_47" depart="12.70" departLane="001_001_2_2" departPos="8.10" departSpeed="11.18" departDelay="0.70" arrival="48.60" arrivalLane="000_001_3_0" arrivalPos="200.00" arrivalSpeed="11.18" duration="35.90" routeLength="400.93" waitingTime="0.00" waitingCount="0" stopTime="0.00" timeLoss="-2.67" rerouteNo="1" devices="tripinfo_RX_47" vType="car8@RX_47" speedFactor="1.00" vaporized=""/>
    <tripinfo id="RX_57" depart="14.00" departLane="002_001_4_0" departPos="9.10" departSpeed="11.18" departDelay="0.00" arrival="49.80" arrivalLane="003_001_1_0" arrivalPos="200.00" arrivalSpeed="11.18" duration="35.80" routeLength="399.93" waitingTime="0.00" waitingCount="0" stopTime="0.00" timeLoss="-2.71" rerouteNo="1" devices="tripinfo_RX_57" vType="car9@RX_57" speedFactor="1.02" vaporized=""/>
    <tripinfo id="SX_37" depart="9.00" departLane="001_001_4_0" departPos="6.10" departSpeed="11.18" departDelay="0.00" arrival="49.90" arrivalLane="001_002_4_2" arrivalPos="200.00" arrivalSpeed="11.18" duration="40.90" routeLength="421.10" waitingTime="0.00" waitingCount="0" stopTime="0.00" timeLoss="-0.18" rerouteNo="1" devices="tripinfo_SX_37" vType="car6@SX_37" speedFactor="1.16" vaporized=""/>
    <tripinfo id="SX_34" depart="8.00" departLane="002_001_2_0" departPos="7.10" departSpeed="11.18" departDelay="0.00" arrival="50.10" arrivalLane="002_000_2_2" arrivalPos="200.00" arrivalSpeed="11.18" duration="42.10" routeLength="420.10" waitingTime="2.70" waitingCount="1" stopTime="0.00" timeLoss="-4753.32" rerouteNo="1" devices="tripinfo_SX_34" vType="car7@SX_34" speedFactor="1.24" vaporized=""/>
    <tripinfo id="SX_41" depart="10.00" departLane="001_001_4_0" departPos="6.10" departSpeed="11.18" departDelay="0.00" arrival="50.90" arrivalLane="001_002_4_1" arrivalPos="200.00" arrivalSpeed="11.18" duration="40.90" routeLength="421.10" waitingTime="0.00" waitingCount="0" stopTime="0.00" timeLoss="-0.17" rerouteNo="1" devices="tripinfo_SX_41" vType="car6@SX_41" speedFactor="1.22" vaporized=""/>
    <tripinfo id="SX_39" depart="9.00" departLane="002_001_4_2" departPos="7.10" departSpeed="11.18" departDelay="0.00" arrival="51.30" arrivalLane="002_002_4_2" arrivalPos="200.00" arrivalSpeed="11.18" duration="42.30" routeLength="420.10" waitingTime="2.90" waitingCount="2" stopTime="0.00" timeLoss="-4954.82" rerouteNo="1" devices="tripinfo_SX_39" vType="car7@SX_39" speedFactor="1.00" vaporized=""/>
    <tripinfo id="SX_55" depart="14.00" departLane="001_001_2_1" departPos="7.10" departSpeed="11.18" departDelay="0.00" arrival="51.60" arrivalLane="001_000_2_1" arrivalPos="200.00" arrivalSpeed="11.18" duration="37.60" routeLength="420.10" waitingTime="0.00" waitingCount="0" stopTime="0.00" timeLoss="0.00" rerouteNo="1" devices="tripinfo_SX_55" vType="car7@SX_55" speedFactor="1.30" vaporized=""/>
    <tripinfo id="RX_61" depart="16.00" departLane="001_001_2_1" departPos="9.10" departSpeed="11.18" departDelay="0.00" arrival="51.80" arrivalLane="000_001_3_0" arrivalPos="200.00" arrivalSpeed="11.18" duration="35.80" routeLength="399.93" waitingTime="0.00" waitingCount="0" stopTime="0.00" timeLoss="-2.52" rerouteNo="1" devices="tripinfo_RX_61" vType="car9@RX_61" speedFactor="1.17" vaporized=""/>
    <tripinfo id="RX_63" depart="16.00" departLane="002_001_3_2" departPos="7.10" departSpeed="11.18" departDelay="0.00" arrival="52.00" arrivalLane="002_002_4_0" arrivalPos="200.00" arrivalSpeed="11.18" duration="36.00" routeLength="401.93" waitingTime="0.00" waitingCount="0" stopTime="0.00" timeLoss="-2.21" rerouteNo="1" devices="tripinfo_RX_63" vType="car7@RX_63" speedFactor="1.91" vaporized=""/>
    <tripinfo id="LX_38" depart="10.80" departLane="002_001_3_0" departPos="9.10" departSpeed="11.18" departDelay="1.80" arrival="52.70" arrivalLane="002_000_2_2" arrivalPos="200.00" arrivalSpeed="11.18" duration="41.90" routeLength="414.12" waitingTime="2.60" waitingCount="2" stopTime="0.00" timeLoss="-4958.85" rerouteNo="1" devices="tripinfo_LX_38" vType="car9@LX_38" speedFactor="1.10" vaporized=""/>
    <tripinfo id="SX_48" depart="14.10" departLane="001_001_4_0" departPos="8.10" departSpeed="11.18" departDelay="2.10" arrival="52.90" arrivalLane="001_002_4_2" arrivalPos="200.00" arrivalSpeed="11.18" duration="38.80" routeLength="419.10" waitingTime="0.00" waitingCount="0" stopTime="0.00" timeLoss="-0.03" rerouteNo="1" devices="tripinfo_SX_48" vType="car8@SX_48" speedFactor="1.32" vaporized=""/>
    <tripinfo id="SX_43" depart="11.30" departLane="001_001_2_2" departPos="7.10" departSpeed="11.18" departDelay="0.30" arrival="53.10" arrivalLane="001_000_2_2" arrivalPos="200.00" arrivalSpeed="11.18" duration="41.80" routeLength="420.10" waitingTime="1.80" waitingCount="2" stopTime="0.00" timeLoss="4.11" rerouteNo="1" devices="tripinfo_SX_43" vType="car7@SX_43" speedFactor="1.00" vaporized=""/>
    <tripinfo id="LX_49" depart="12.00" departLane="002_001_2_2" departPos="9.10" departSpeed="11.18" departDelay="0.00" arrival="53.60" arrivalLane="003_001_1_2" arrivalPos="200.00" arrivalSpeed="11.18" duration="41.60" routeLength="414.11" waitingTime="2.30" waitingCount="2" stopTime="0.00" timeLoss="-4958.55" rerouteNo="1" devices="tripinfo_LX_49" vType="car9@LX_49" speedFactor="1.20" vaporized=""/>
    <tripinfo id="RX_65" depart="17.00" departLane="001_001_2_1" departPos="6.10" departSpeed="11.18" departDelay="0.00" arrival="53.70" arrivalLane="000_001_3_0" arrivalPos="200.00" arrivalSpeed="11.18" duration="36.70" routeLength="402.93" waitingTime="0.00" waitingCount="0" stopTime="0.00" timeLoss="-1.99" rerouteNo="1" devices="tripinfo_RX_65" vType="car6@RX_65" speedFactor="1.10" vaporized=""/>
    <tripinfo id="RX_68" depart="17.00" departLane="002_001_3_2" departPos="7.10" departSpeed="11.18" departDelay="0.00" arrival="54.00" arrivalLane="002_002_4_0" arrivalPos="200.00" arrivalSpeed="11.18" duration="37.00" routeLength="401.93" waitingTime="0.00" waitingCount="0" stopTime="0.00" timeLoss="-1.30" rerouteNo="1" devices="tripinfo_RX_68" vType="car7@RX_68" speedFactor="1.38" vaporized=""/>
    <tripinfo id="SX_62" depart="16.00" departLane="002_001_2_2" departPos="5.10" departSpeed="11.18" departDelay="0.00" arrival="54.20" arrivalLane="002_000_2_1" arrivalPos="200.00" arrivalSpeed="11.18" duration="38.20" routeLength="422.10" waitingTime="0.00" waitingCount="0" stopTime="0.00" timeLoss="-0.01" rerouteNo="1" devices="tripinfo_SX_62" vType="car5@SX_62" speedFactor="1.92" vaporized=""/>
    <tripinfo id="RX_79" depart="19.00" departLane="002_001_4_1" departPos="9.10" departSpeed="11.18" departDelay="0.00" arrival="54.80" arrivalLane="003_001_1_0" arrivalPos="200.00" arrivalSpeed="11.18" duration="35.80" routeLength="399.93" waitingTime="0.00" waitingCount="0" stopTime="0.00" timeLoss="-2.21" rerouteNo="1" devices="tripinfo_RX_79" vType="car9@RX_79" speedFactor="1.96" vaporized=""/>
    <tripinfo id="LX_66" depart="17.00" departLane="001_001_4_2" departPos="8.10" departSpeed="11.18" departDelay="0.00" arrival="55.00" arrivalLane="000_001_3_2" arrivalPos="200.00" arrivalSpeed="11.18" duration="38.00" routeLength="415.11" waitingTime="0.00" waitingCount="0" stopTime="0.00" timeLoss="-2.37" rerouteNo="1" devices="tripinfo_LX_66" vType="car8@LX_66" speedFactor="1.97" vaporized=""/>
    <tripinfo id="SX_56" depart="14.40" departLane="002_001_2_0" departPos="6.10" departSpeed="11.18" departDelay="0.40" arrival="55.10" arrivalLane="002_000_2_2" arrivalPos="200.00" arrivalSpeed="11.18" duration="40.70" routeLength="421.10" waitingTime="2.00" waitingCount="1" stopTime="0.00" timeLoss="2.84" rerouteNo="1" devices="tripinfo_SX_56" vType="car6@SX_56" speedFactor="1.00" vaporized=""/>
    <tripinfo id="RX_80" depart="20.00" departLane="001_001_1_1" departPos="6.10" departSpeed="11.18" departDelay="0.00" arrival="56.10" arrivalLane="001_000_2_0" arrivalPos="200.00" arrivalSpeed="11.18" duration="36.10" routeLength="402.93" waitingTime="0.00" waitingCount="0" stopTime="0.00" timeLoss="-2.20" rerouteNo="1" devices="tripinfo_RX_80" vType="car6@RX_80" speedFactor="1.96" vaporized=""/>
    <tripinfo id="RX_81" depart="20.00" departLane="001_001_2_0" departPos="5.10" departSpeed="11.18" departDelay="0.00" arrival="56.20" arrivalLane="000_001_3_0" arrivalPos="200.00" arrivalSpeed="11.18" duration="36.20" routeLength="403.93" waitingTime="0.00" waitingCount="0" stopTime="0.00" timeLoss="-2.62" rerouteNo="1" devices="tripinfo_RX_81" vType="car5@RX_81" speedFactor="1.04" vaporized=""/>
    <tripinfo id="SX_75" depart="19.10" departLane="001_001_2_1" departPos="5.10" departSpeed="11.18" departDelay="0.10" arrival="57.00" arrivalLane="001_000_2_2" arrivalPos="200.00" arrivalSpeed="11.18" duration="37.90" routeLength="422.10" waitingTime="0.00" waitingCount="0" stopTime="0.00" timeLoss="0.06" rerouteNo="1" devices="tripinfo_SX_75" vType="car5@SX_75" speedFactor="1.00" vaporized=""/>
    <tripinfo id="SX_71" depart="18.00" departLane="001_001_2_2" departPos="8.10" departSpeed="11.18" departDelay="0.00" arrival="57.20" arrivalLane="001_000_2_1" arrivalPos="200.00" arrivalSpeed="11.18" duration="39.20" routeLength="419.10" waitingTime="0.00" waitingCount="0" stopTime="0.00" timeLoss="-0.06" rerouteNo="1" devices="tripinfo_SX_71" vType="car8@SX_71" speedFactor="1.73" vaporized=""/>
    <tripinfo id="SX_60" depart="15.40" departLane="002_001_4_0" departPos="8.10" departSpeed="11.18" departDelay="0.40" arrival="57.30" arrivalLane="002_002_4_1" arrivalPos="200.00" arrivalSpeed="11.18" duration="41.90" routeLength="419.10" waitingTime="0.00" waitingCount="0" stopTime="0.00" timeLoss="-0.65" rerouteNo="1" devices="tripinfo_SX_60" vType="car8@SX_60" speedFactor="1.22" vaporized=""/>
    <tripinfo id="SX_69" depart="17.00" departLane="002_001_4_0" departPos="9.10" departSpeed="11.18" departDelay="0.00" arrival="57.60" arrivalLane="002_002_4_2" arrivalPos="200.00" arrivalSpeed="11.18" duration="40.60" routeLength="418.10" waitingTime="0.00" waitingCount="0" stopTime="0.00" timeLoss="-0.37" rerouteNo="1" devices="tripinfo_SX_69" vType="car9@SX_69" speedFactor="1.43" vaporized=""/>
    <tripinfo id="RX_87" depart="22.00" departLane="002_001_3_0" departPos="6.10" departSpeed="11.18" departDelay="0.00" arrival="58.10" arrivalLane="002_002_4_0" arrivalPos="200.00" arrivalSpeed="11.18" duration="36.10" routeLength="402.93" waitingTime="0.00" waitingCount="0" stopTime="0.00" timeLoss="-2.20" rerouteNo="1" devices="tripinfo_RX_87" vType="car6@RX_87" speedFactor="1.61" vaporized=""/>
    <tripinfo id="RX_85" depart="22.00" departLane="001_001_1_2" departPos="6.10" departSpeed="11.18" departDelay="0.00" arrival="58.20" arrivalLane="001_000_2_0" arrivalPos="200.00" arrivalSpeed="11.18" duration="36.20" routeLength="402.93" waitingTime="0.00" waitingCount="0" stopTime="0.00" timeLoss="-2.35" rerouteNo="1" devices="tripinfo_RX_85" vType="car6@RX_85" speedFactor="1.31" vaporized=""/>
    <tripinfo id="SX_72" depart="18.30" departLane="001_001_4_2" departPos="7.10" departSpeed="11.18" departDelay="0.30" arrival="58.50" arrivalLane="001_002_4_1" arrivalPos="200.00" arrivalSpeed="11.18" duration="40.20" routeLength="420.10" waitingTime="0.00" waitingCount="0" stopTime="0.00" timeLoss="-0.23" rerouteNo="1" devices="tripinfo_SX_72" vType="car7@SX_72" speedFactor="1.14" vaporized=""/>
    <tripinfo id="LX_70" depart="18.00" departLane="001_001_1_2" departPos="9.10" departSpeed="11.18" departDelay="0.00" arrival="58.60" arrivalLane="001_002_4_2" arrivalPos="200.00" arrivalSpeed="11.18" duration="40.60" routeLength="414.12" waitingTime="0.00" waitingCount="0" stopTime="0.00" timeLoss="-2.59" rerouteNo="1" devices="tripinfo_LX_70" vType="car9@LX_70" speedFactor="1.88" vaporized=""/>
    <tripinfo id="RR_16" depart="4.40" departLane="002_001_2_1" departPos="8.10" departSpeed="11.18" departDelay="0.40" arrival="59.00" arrivalLane="001_002_4_0" arrivalPos="200.00" arrivalSpeed="11.18" duration="54.60" routeLength="609.96" waitingTime="0.00" waitingCount="0" stopTime="0.00" timeLoss="-3.30" rerouteNo="2" devices="tripinfo_RR_16" vType="car8@RR_16" speedFactor="1.00" vaporized=""/>
    <tripinfo id="SR_8" depart="3.00" departLane="001_001_1_0" departPos="9.10" departSpeed="11.18" departDelay="0.00" arrival="59.20" arrivalLane="002_000_2_0" arrivalPos="200.00" arrivalSpeed="11.18" duration="56.20" routeLength="627.13" waitingTime="0.00" waitingCount="0" stopTime="0.00" timeLoss="-2.40" rerouteNo="2" devices="tripinfo_SR_8" vType="car9@SR_8" speedFactor="1.26" vaporized=""/>
    <tripinfo id="RX_90" depart="23.00" departLane="001_001_2_1" departPos="5.10" departSpeed="11.18" departDelay="0.00" arrival="59.20" arrivalLane="000_001_3_0" arrivalPos="200.00" arrivalSpeed="11.18" duration="36.20" routeLength="403.93" waitingTime="0.00" waitingCount="0" stopTime="0.00" timeLoss="-2.35" rerouteNo="1" devices="tripinfo_RX_90" vType="car5@RX_90" speedFactor="1.32" vaporized=""/>
    <tripinfo id="LX_83" depart="21.00" departLane="001_001_4_2" departPos="8.10" departSpeed="11.18" departDelay="0.00" arrival="59.30" arrivalLane="000_001_3_2" arrivalPos="200.00" arrivalSpeed="11.18" duration="38.30" routeLength="415.11" waitingTime="0.00" waitingCount="0" stopTime="0.00" timeLoss="-2.38" rerouteNo="1" devices="tripinfo_LX_83" vType="car8@LX_83" speedFactor="1.71" vaporized=""/>
    <tripinfo id="SX_67" depart="17.00" departLane="002_001_2_0" departPos="7.10" departSpeed="11.18" departDelay="0.00" arrival="59.40" arrivalLane="002_000_2_2" arrivalPos="200.00" arrivalSpeed="11.18" duration="42.40" routeLength="420.10" waitingTime="2.60" waitingCount="1" stopTime="0.00" timeLoss="-4857.17" rerouteNo="1" devices="tripinfo_SX_67" vType="car7@SX_67" speedFactor="1.65" vaporized=""/>
    <tripinfo id="LL_7" depart="2.90" departLane="002_001_4_2" departPos="9.10" departSpeed="11.18" departDelay="0.90" arrival="60.00" arrivalLane="001_000_2_2" arrivalPos="200.00" arrivalSpeed="11.18" duration="57.10" routeLength="637.33" waitingTime="0.00" waitingCount="0" stopTime="0.00" timeLoss="-2.61" rerouteNo="2" devices="tripinfo_LL_7" vType="car9@LL_7" speedFactor="1.91" vaporized=""/>
    <tripinfo id="LR_9" depart="3.00" departLane="001_001_2_2" departPos="9.10" departSpeed="11.18" departDelay="0.00" arrival="60.50" arrivalLane="002_000_2_0" arrivalPos="200.00" arrivalSpeed="11.18" duration="57.50" routeLength="623.14" waitingTime="0.70" waitingCount="1" stopTime="0.00" timeLoss="-4528.98" rerouteNo="2" devices="tripinfo_LR_9" vType="car9@LR_9" speedFactor="1.47" vaporized=""/>
    <tripinfo id="RX_100" depart="25.00" departLane="002_001_4_0" departPos="5.10" departSpeed="11.18" departDelay="0.00" arrival="61.20" arrivalLane="003_001_1_0" arrivalPos="200.00" arrivalSpeed="11.18" duration="36.20" routeLength="403.93" waitingTime="0.00" waitingCount="0" stopTime="0.00" timeLoss="-2.49" rerouteNo="1" devices="tripinfo_RX_100" vType="car5@RX_100" speedFactor="1.16" vaporized=""/>
    <tripinfo id="SX_82" depart="21.00" departLane="001_001_2_1" departPos="7.10" departSpeed="11.18" departDelay="0.00" arrival="61.50" arrivalLane="001_000_2_1" arrivalPos="200.00" arrivalSpeed="11.18" duration="40.50" routeLength="420.10" waitingTime="0.00" waitingCount="0" stopTime="0.00" timeLoss="-0.16" rerouteNo="1" devices="tripinfo_SX_82" vType="car7@SX_82" speedFactor="1.03" vaporized=""/>
    <tripinfo id="LX_78" depart="19.00" departLane="002_001_3_1" departPos="8.10" departSpeed="11.18" departDelay="0.00" arrival="61.80" arrivalLane="002_000_2_1" arrivalPos="200.00" arrivalSpeed="11.18" duration="42.80" routeLength="420.00" waitingTime="0.00" waitingCount="0" stopTime="0.00" timeLoss="-3.28" rerouteNo="1" devices="tripinfo_LX_78" vType="car8@LX_78" speedFactor="1.09" vaporized=""/>
    <tripinfo id="LS_12" depart="3.00" departLane="002_001_4_0" departPos="8.10" departSpeed="11.18" departDelay="0.00" arrival="62.90" arrivalLane="000_001_3_2" arrivalPos="200.00" arrivalSpeed="11.18" duration="59.90" routeLength="647.20" waitingTime="0.00" waitingCount="0" stopTime="0.00" timeLoss="-0.43" rerouteNo="2" devices="tripinfo_LS_12" vType="car8@LS_12" speedFactor="1.30" vaporized=""/>
    <tripinfo id="RX_101" depart="26.00" departLane="001_001_1_2" departPos="6.10" departSpeed="11.18" departDelay="0.00" arrival="62.90" arrivalLane="001_000_2_0" arrivalPos="200.00" arrivalSpeed="11.18" duration="36.90" routeLength="402.93" waitingTime="0.00" waitingCount="0" stopTime="0.00" timeLoss="-1.51" rerouteNo="1" devices="tripinfo_RX_101" vType="car6@RX_101" speedFactor="1.40" vaporized=""/>
    <tripinfo id="RX_109" depart="28.00" departLane="002_001_3_0" departPos="9.10" departSpeed="11.18" departDelay="0.00" arrival="63.80" arrivalLane="002_002_4_0" arrivalPos="200.00" arrivalSpeed="11.18" duration="35.80" routeLength="399.93" waitingTime="0.00" waitingCount="0" stopTime="0.00" timeLoss="-2.30" rerouteNo="1" devices="tripinfo_RX_109" vType="car9@RX_109" speedFactor="1.40" vaporized=""/>
    <tripinfo id="SX_77" depart="20.60" departLane="002_001_2_2" departPos="6.10" departSpeed="11.18" departDelay="1.60" arrival="63.90" arrivalLane="002_000_2_1" arrivalPos="200.00" arrivalSpeed="11.18" duration="43.30" routeLength="421.10" waitingTime="0.00" waitingCount="0" stopTime="0.00" timeLoss="-0.84" rerouteNo="1" devices="tripinfo_SX_77" vType="car6@SX_77" speedFactor="1.99" vaporized=""/>
    <tripinfo id="RX_107" depart="28.30" departLane="001_001_2_1" departPos="7.10" departSpeed="11.18" departDelay="0.30" arrival="64.30" arrivalLane="000_001_3_0" arrivalPos="200.00" arrivalSpeed="11.18" duration="36.00" routeLength="401.93" waitingTime="0.00" waitingCount="0" stopTime="0.00" timeLoss="-2.21" rerouteNo="1" devices="tripinfo_RX_107" vType="car7@RX_107" speedFactor="1.79" vaporized=""/>
    <tripinfo id="SX_104" depart="27.00" departLane="001_001_2_1" departPos="5.10" departSpeed="11.18" departDelay="0.00" arrival="64.90" arrivalLane="001_000_2_1" arrivalPos="200.00" arrivalSpeed="11.18" duration="37.90" routeLength="422.10" waitingTime="0.00" waitingCount="0" stopTime="0.00" timeLoss="0.00" rerouteNo="1" devices="tripinfo_SX_104" vType="car5@SX_104" speedFactor="1.71" vaporized=""/>
    <tripinfo id="SR_22" depart="6.00" departLane="001_001_1_0" departPos="9.10" departSpeed="11.18" departDelay="0.00" arrival="65.00" arrivalLane="002_000_2_1" arrivalPos="200.00" arrivalSpeed="11.18" duration="59.00" routeLength="632.29" waitingTime="0.00" waitingCount="0" stopTime="0.00" timeLoss="-2.74" rerouteNo="2" devices="tripinfo_SR_22" vType="car9@SR_22" speedFactor="1.00" vaporized=""/>
    <tripinfo id="SR_30" depart="7.00" departLane="002_001_3_0" departPos="8.10" departSpeed="11.18" departDelay="0.00" arrival="65.00" arrivalLane="001_002_4_0" arrivalPos="200.00" arrivalSpeed="11.18" duration="58.00" routeLength="628.13" waitingTime="0.00" waitingCount="0" stopTime="0.00" timeLoss="-2.60" rerouteNo="2" devices="tripinfo_SR_30" vType="car8@SR_30" speedFactor="1.17" vaporized=""/>