<?xml version="1.0" encoding="UTF-8"?>

<!-- generated on 06/11/20 16:46:35 by Eclipse SUMO Version 1.6.0
<configuration xmlns:xsi="http://www.w3.org/2001/XMLSchema-instance" xsi:noNamespaceSchemaLocation="http://sumo.dlr.de/xsd/sumoConfiguration.xsd">

    <input>
        <net-file value="data/lane3.net.xml"/>
        <route-files value="data/icacc+.rou.xml"/>
        <additional-files value="data/icacc+.det.xml"/>
    </input>

    <output>
        <tripinfo-output value="tripinfo.xml"/>
    </output>

    <time>
        <begin value="0"/>
        <step-length value="0.1"/>
    </time>

    <processing>
        <collision.mingap-factor value="0"/>
    </processing>

    <report>
        <verbose value="true"/>
        <no-step-log value="true"/>
    </report>

    <traci_server>
        <remote-port value="5767"/>
    </traci_server>

    <gui_only>
        <start value="true"/>
        <tracker-interval value="0.1"/>
    </gui_only>

</configuration>
-->

<tripinfos xmlns:xsi="http://www.w3.org/2001/XMLSchema-instance" xsi:noNamespaceSchemaLocation="http://sumo.dlr.de/xsd/tripinfo_file.xsd">
    <tripinfo id="R_1" depart="9.00" departLane="3_1" departPos="9.10" departSpeed="11.18" departDelay="0.00" arrival="45.10" arrivalLane="-2_1" arrivalPos="200.00" arrivalSpeed="11.18" duration="36.10" routeLength="401.22" waitingTime="0.00" waitingCount="0" stopTime="0.00" timeLoss="-2.72" rerouteNo="0" devices="tripinfo_R_1" vType="car9@R_1" speedFactor="0.94" vaporized=""/>
    <tripinfo id="S_0" depart="8.00" departLane="4_2" departPos="6.10" departSpeed="11.18" departDelay="0.00" arrival="45.30" arrivalLane="-2_2" arrivalPos="200.00" arrivalSpeed="11.18" duration="37.30" routeLength="416.30" waitingTime="0.00" waitingCount="0" stopTime="0.00" timeLoss="0.00" rerouteNo="0" devices="tripinfo_S_0" vType="car6@S_0" speedFactor="1.06" vaporized=""/>
    <tripinfo id="S_2" depart="12.00" departLane="1_0" departPos="7.10" departSpeed="11.18" departDelay="0.00" arrival="49.20" arrivalLane="-3_2" arrivalPos="200.00" arrivalSpeed="11.18" duration="37.20" routeLength="415.30" waitingTime="0.00" waitingCount="0" stopTime="0.00" timeLoss="0.00" rerouteNo="0" devices="tripinfo_S_2" vType="car7@S_2" speedFactor="1.01" vaporized=""/>
    <tripinfo id="S_3" depart="17.00" departLane="2_2" departPos="9.10" departSpeed="11.18" departDelay="0.00" arrival="54.00" arrivalLane="-4_2" arrivalPos="200.00" arrivalSpeed="11.18" duration="37.00" routeLength="413.30" waitingTime="0.00" waitingCount="0" stopTime="0.00" timeLoss="0.00" rerouteNo="0" devices="tripinfo_S_3" vType="car9@S_3" speedFactor="1.08" vaporized=""/>
    <tripinfo id="S_4" depart="22.00" departLane="2_1" departPos="7.10" departSpeed="11.18" departDelay="0.00" arrival="59.20" arrivalLane="-4_0" arrivalPos="200.00" arrivalSpeed="11.18" duration="37.20" routeLength="415.30" waitingTime="0.00" waitingCount="0" stopTime="0.00" timeLoss="0.00" rerouteNo="0" devices="tripinfo_S_4" vType="car7@S_4" speedFactor="1.03" vaporized=""/>
    <tripinfo id="S_5" depart="25.00" departLane="3_1" departPos="9.10" departSpeed="11.18" departDelay="0.00" arrival="62.00" arrivalLane="-1_2" arrivalPos="200.00" arrivalSpeed="11.18" duration="37.00" routeLength="413.30" waitingTime="0.00" waitingCount="0" stopTime="0.00" timeLoss="0.00" rerouteNo="0" devices="tripinfo_S_5" vType="car9@S_5" speedFactor="0.83" vaporized=""/>
    <tripinfo id="R_7" depart="27.00" departLane="3_0" departPos="9.10" departSpeed="11.18" departDelay="0.00" arrival="63.60" arrivalLane="-2_2" arrivalPos="200.00" arrivalSpeed="11.18" duration="36.60" routeLength="406.38" waitingTime="0.00" waitingCount="0" stopTime="0.00" timeLoss="-2.69" rerouteNo="0" devices="tripinfo_R_7" vType="car9@R_7" speedFactor="0.89" vaporized=""/>
    <tripinfo id="S_6" depart="26.00" departLane="2_1" departPos="8.10" departSpeed="11.18" departDelay="0.00" arrival="64.20" arrivalLane="-4_1" arrivalPos="200.00" arrivalSpeed="11.18" duration="38.20" routeLength="414.30" waitingTime="0.20" waitingCount="1" stopTime="0.00" timeLoss="-4405.61" rerouteNo="0" devices="tripinfo_S_6" vType="car8@S_6" speedFactor="1.05" vaporized=""/>
    <tripinfo id="R_8" depart="29.00" departLane="1_1" departPos="5.10" departSpeed="11.18" departDelay="0.00" arrival="64.90" arrivalLane="-4_0" arrivalPos="200.00" arrivalSpeed="11.18" duration="35.90" routeLength="400.06" waitingTime="0.00" waitingCount="0" stopTime="0.00" timeLoss="-2.67" rerouteNo="0" devices="tripinfo_R_8" vType="car5@R_8" speedFactor="0.94" vaporized=""/>
    <tripinfo id="S_9" depart="30.00" departLane="4_0" departPos="9.10" departSpeed="11.18" departDelay="0.00" arrival="67.00" arrivalLane="-2_2" arrivalPos="200.00" arrivalSpeed="11.18" duration="37.00" routeLength="413.30" waitingTime="0.00" waitingCount="0" stopTime="0.00" timeLoss="0.00" rerouteNo="0" devices="tripinfo_S_9" vType="car9@S_9" speedFactor="0.86" vaporized=""/>
    <tripinfo id="R_10" depart="33.00" departLane="1_2" departPos="9.10" departSpeed="11.18" departDelay="0.00" arrival="68.50" arrivalLane="-4_0" arrivalPos="200.00" arrivalSpeed="11.18" duration="35.50" routeLength="396.06" waitingTime="0.00" waitingCount="0" stopTime="0.00" timeLoss="-2.59" rerouteNo="0" devices="tripinfo_R_10" vType="car9@R_10" speedFactor="1.09" vaporized=""/>
    <tripinfo id="S_11" depart="36.00" departLane="4_2" departPos="6.10" departSpeed="11.18" departDelay="0.00" arrival="73.30" arrivalLane="-2_2" arrivalPos="200.00" arrivalSpeed="11.18" duration="37.30" routeLength="416.30" waitingTime="0.00" waitingCount="0" stopTime="0.00" timeLoss="0.00" rerouteNo="0" devices="tripinfo_S_11" vType="car6@S_11" speedFactor="1.03" vaporized=""/>
    <tripinfo id="S_12" depart="37.00" departLane="1_0" departPos="6.10" departSpeed="11.18" departDelay="0.00" arrival="74.30" arrivalLane="-3_2" arrivalPos="200.00" arrivalSpeed="11.18" duration="37.30" routeLength="416.30" waitingTime="0.00" waitingCount="0" stopTime="0.00" timeLoss="0.00" rerouteNo="0" devices="tripinfo_S_12" vType="car6@S_12" speedFactor="1.05" vaporized=""/>
    <tripinfo id="R_13" depart="40.00" departLane="1_0" departPos="6.10" departSpeed="11.18" departDelay="0.00" arrival="76.80" arrivalLane="-4_2" arrivalPos="200.00" arrivalSpeed="11.18" duration="36.80" routeLength="409.38" waitingTime="0.00" waitingCount="0" stopTime="0.00" timeLoss="-2.23" rerouteNo="0" devices="tripinfo_R_13" vType="car6@R_13" speedFactor="1.12" vaporized=""/>
    <tripinfo id="L_14" depart="42.00" departLane="4_1" departPos="6.10" departSpeed="11.18" departDelay="0.00" arrival="79.20" arrivalLane="-1_2" arrivalPos="200.00" arrivalSpeed="11.18" duration="37.20" routeLength="413.45" waitingTime="0.00" waitingCount="0" stopTime="0.00" timeLoss="-2.28" rerouteNo="0" devices="tripinfo_L_14" vType="car6@L_14" speedFactor="0.99" vaporized=""/>
    <tripinfo id="L_15" depart="46.00" departLane="4_2" departPos="9.10" departSpeed="11.18" departDelay="0.00" arrival="83.00" arrivalLane="-1_2" arrivalPos="200.00" arrivalSpeed="11.18" duration="37.00" routeLength="410.45" waitingTime="0.00" waitingCount="0" stopTime="0.00" timeLoss="-2.44" rerouteNo="0" devices="tripinfo_L_15" vType="car9@L_15" speedFactor="0.93" vaporized=""/>
    <tripinfo id="R_17" depart="48.00" departLane="3_0" departPos="8.10" departSpeed="11.18" departDelay="0.00" arrival="84.10" arrivalLane="-2_1" arrivalPos="200.00" arrivalSpeed="11.18" duration="36.10" routeLength="402.22" waitingTime="0.00" waitingCount="0" stopTime="0.00" timeLoss="-2.70" rerouteNo="0" devices="tripinfo_R_17" vType="car8@R_17" speedFactor="0.94" vaporized=""/>
    <tripinfo id="L_16" depart="48.00" departLane="2_2" departPos="7.10" departSpeed="11.18" departDelay="0.00" arrival="85.20" arrivalLane="-3_2" arrivalPos="200.00" arrivalSpeed="11.18" duration="37.20" routeLength="412.45" waitingTime="0.00" waitingCount="0" stopTime="0.00" timeLoss="-2.57" rerouteNo="0" devices="tripinfo_L_16" vType="car7@L_16" speedFactor="0.88" vaporized=""/>
    <tripinfo id="R_18" depart="50.00" departLane="2_0" departPos="7.10" departSpeed="11.18" departDelay="0.00" arrival="86.80" arrivalLane="-1_2" arrivalPos="200.00" arrivalSpeed="11.18" duration="36.80" routeLength="408.39" waitingTime="0.00" waitingCount="0" stopTime="0.00" timeLoss="-2.58" rerouteNo="0" devices="tripinfo_R_18" vType="car7@R_18" speedFactor="0.94" vaporized=""/>
    <tripinfo id="R_19" depart="52.00" departLane="3_0" departPos="8.10" departSpeed="11.18" departDelay="0.00" arrival="88.10" arrivalLane="-2_1" arrivalPos="200.00" arrivalSpeed="11.18" duration="36.10" routeLength="402.22" waitingTime="0.00" waitingCount="0" stopTime="0.00" timeLoss="-2.39" rerouteNo="0" devices="tripinfo_R_19" vType="car8@R_19" speedFactor="1.16" vaporized=""/>
    <tripinfo id="R_20" depart="53.00" departLane="4_2" departPos="8.10" departSpeed="11.18" departDelay="0.00" arrival="89.10" arrivalLane="-3_1" arrivalPos="200.00" arrivalSpeed="11.18" duration="36.10" routeLength="402.22" waitingTime="0.00" waitingCount="0" stopTime="0.00" timeLoss="-2.58" rerouteNo="0" devices="tripinfo_R_20" vType="car8@R_20" speedFactor="1.02" vaporized=""/>
    <tripinfo id="R_21" depart="56.00" departLane="1_0" departPos="6.10" departSpeed="11.18" departDelay="0.00" arrival="92.80" arrivalLane="-4_2" arrivalPos="200.00" arrivalSpeed="11.18" duration="36.80" routeLength="409.38" waitingTime="0.00" waitingCount="0" stopTime="0.00" timeLoss="-2.41" rerouteNo="0" devices="tripinfo_R_21" vType="car6@R_21" speedFactor="1.01" vaporized=""/>
    <tripinfo id="S_22" depart="57.00" departLane="2_0" departPos="9.10" departSpeed="11.18" departDelay="0.00" arrival="94.20" arrivalLane="-4_1" arrivalPos="200.00" arrivalSpeed="11.18" duration="37.20" routeLength="413.30" waitingTime="0.00" waitingCount="0" stopTime="0.00" timeLoss="-0.04" rerouteNo="0" devices="tripinfo_S_22" vType="car9@S_22" speedFactor="0.98" vaporized=""/>
    <tripinfo id="R_23" depart="59.00" departLane="1_0" departPos="7.10" departSpeed="11.18" departDelay="0.00" arrival="95.90" arrivalLane="-4_2" arrivalPos="200.00" arrivalSpeed="11.18" duration="36.90" routeLength="408.38" waitingTime="0.00" waitingCount="0" stopTime="0.00" timeLoss="-2.68" rerouteNo="0" devices="tripinfo_R_23" vType="car7@R_23" speedFactor="0.89" vaporized=""/>
    <tripinfo id="L_24" depart="59.00" departLane="2_1" departPos="6.10" departSpeed="11.18" departDelay="0.00" arrival="96.20" arrivalLane="-3_2" arrivalPos="200.00" arrivalSpeed="11.18" duration="37.20" routeLength="413.45" waitingTime="0.00" waitingCount="0" stopTime="0.00" timeLoss="-2.72" rerouteNo="0" devices="tripinfo_L_24" vType="car6@L_24" speedFactor="0.83" vaporized=""/>
    <tripinfo id="S_25" depart="59.00" departLane="4_2" departPos="7.10" departSpeed="11.18" departDelay="0.00" arrival="97.00" arrivalLane="-2_2" arrivalPos="200.00" arrivalSpeed="11.18" duration="38.00" routeLength="415.30" waitingTime="0.00" waitingCount="0" stopTime="0.00" timeLoss="-77.46" rerouteNo="0" devices="tripinfo_S_25" vType="car7@S_25" speedFactor="0.87" vaporized=""/>
    <tripinfo id="R_27" depart="63.00" departLane="4_0" departPos="6.10" departSpeed="11.18" departDelay="0.00" arrival="99.80" arrivalLane="-3_2" arrivalPos="200.00" arrivalSpeed="11.18" duration="36.80" routeLength="409.39" waitingTime="0.00" waitingCount="0" stopTime="0.00" timeLoss="-2.52" rerouteNo="0" devices="tripinfo_R_27" vType="car6@R_27" speedFactor="0.95" vaporized=""/>
    <tripinfo id="L_26" depart="63.00" departLane="3_0" departPos="8.10" departSpeed="11.18" departDelay="0.00" arrival="100.60" arrivalLane="-4_1" arrivalPos="200.00" arrivalSpeed="11.18" duration="37.60" routeLength="416.34" waitingTime="0.00" waitingCount="0" stopTime="0.00" timeLoss="-2.26" rerouteNo="0" devices="tripinfo_L_26" vType="car8@L_26" speedFactor="0.92" vaporized=""/>
    <tripinfo id="S_28" depart="67.00" departLane="1_2" departPos="8.10" departSpeed="11.18" departDelay="0.00" arrival="104.10" arrivalLane="-3_2" arrivalPos="200.00" arrivalSpeed="11.18" duration="37.10" routeLength="414.30" waitingTime="0.00" waitingCount="0" stopTime="0.00" timeLoss="0.00" rerouteNo="0" devices="tripinfo_S_28" vType="car8@S_28" speedFactor="1.13" vaporized=""/>
    <tripinfo id="S_29" depart="68.00" departLane="4_2" departPos="6.10" departSpeed="11.18" departDelay="0.00" arrival="106.10" arrivalLane="-2_1" arrivalPos="200.00" arrivalSpeed="11.18" duration="38.10" routeLength="416.30" waitingTime="0.00" waitingCount="0" stopTime="0.00" timeLoss="-4180.12" rerouteNo="0" devices="tripinfo_S_29" vType="car6@S_29" speedFactor="0.93" vaporized=""/>
    <tripinfo id="L_30" depart="75.00" departLane="1_0" departPos="6.10" departSpeed="11.18" departDelay="0.00" arrival="112.20" arrivalLane="-2_2" arrivalPos="200.00" arrivalSpeed="11.18" duration="37.20" routeLength="413.45" waitingTime="0.00" waitingCount="0" stopTime="0.00" timeLoss="-2.11" rerouteNo="0" devices="tripinfo_L_30" vType="car6@L_30" speedFactor="1.18" vaporized=""/>
    <tripinfo id="R_31" depart="76.00" departLane="3_0" departPos="9.10" departSpeed="11.18" departDelay="0.00" arrival="113.80" arrivalLane="-2_2" arrivalPos="200.00" arrivalSpeed="11.18" duration="37.80" routeLength="406.38" waitingTime="0.30" waitingCount="1" stopTime="0.00" timeLoss="-4528.67" rerouteNo="0" devices="tripinfo_R_31" vType="car9@R_31" speedFactor="1.15" vaporized=""/>
    <tripinfo id="S_33" depart="77.00" departLane="1_2" departPos="6.10" departSpeed="11.18" departDelay="0.00" arrival="114.30" arrivalLane="-3_2" arrivalPos="200.00" arrivalSpeed="11.18" duration="37.30" routeLength="416.30" waitingTime="0.00" waitingCount="0" stopTime="0.00" timeLoss="0.00" rerouteNo="0" devices="tripinfo_S_33" vType="car6@S_33" speedFactor="1.17" vaporized=""/>
    <tripinfo id="S_32" depart="76.00" departLane="4_0" departPos="5.10" departSpeed="11.18" departDelay="0.00" arrival="115.90" arrivalLane="-2_2" arrivalPos="200.00" arrivalSpeed="11.18" duration="39.90" routeLength="417.30" waitingTime="1.60" waitingCount="1" stopTime="0.00" timeLoss="-4058.71" rerouteNo="0" devices="tripinfo_S_32" vType="car5@S_32" speedFactor="1.01" vaporized=""/>
    <tripinfo id="L_34" depart="83.00" departLane="3_0" departPos="7.10" departSpeed="11.18" departDelay="0.00" arrival="120.20" arrivalLane="-4_2" arrivalPos="200.00" arrivalSpeed="11.18" duration="37.20" routeLength="412.45" waitingTime="0.00" waitingCount="0" stopTime="0.00" timeLoss="-2.28" rerouteNo="0" devices="tripinfo_L_34" vType="car7@L_34" speedFactor="0.99" vaporized=""/>
    <tripinfo id="S_35" depart="84.00" departLane="1_2" departPos="9.10" departSpeed="11.18" departDelay="0.00" arrival="121.00" arrivalLane="-3_2" arrivalPos="200.00" arrivalSpeed="11.18" duration="37.00" routeLength="413.30" waitingTime="0.00" waitingCount="0" stopTime="0.00" timeLoss="0.00" rerouteNo="0" devices="tripinfo_S_35" vType="car9@S_35" speedFactor="1.02" vaporized=""/>
    <tripinfo id="S_37" depart="85.00" departLane="4_0" departPos="7.10" departSpeed="11.18" departDelay="0.00" arrival="122.80" arrivalLane="-2_2" arrivalPos="200.00" arrivalSpeed="11.18" duration="37.80" routeLength="415.30" waitingTime="0.00" waitingCount="0" stopTime="0.00" timeLoss="-1.91" rerouteNo="0" devices="tripinfo_S_37" vType="car7@S_37" speedFactor="1.18" vaporized=""/>
    <tripinfo id="S_36" depart="85.00" departLane="1_1" departPos="5.10" departSpeed="11.18" departDelay="0.00" arrival="123.40" arrivalLane="-3_0" arrivalPos="200.00" arrivalSpeed="11.18" duration="38.40" routeLength="417.30" waitingTime="0.10" waitingCount="1" stopTime="0.00" timeLoss="-4058.71" rerouteNo="0" devices="tripinfo_S_36" vType="car5@S_36" speedFactor="0.97" vaporized=""/>
    <tripinfo id="R_38" depart="88.00" departLane="2_1" departPos="5.10" departSpeed="11.18" departDelay="0.00" arrival="124.40" arrivalLane="-1_1" arrivalPos="200.00" arrivalSpeed="11.18" duration="36.40" routeLength="405.22" waitingTime="0.00" waitingCount="0" stopTime="0.00" timeLoss="-2.44" rerouteNo="0" devices="tripinfo_R_38" vType="car5@R_38" speedFactor="1.10" vaporized=""/>
    <tripinfo id="R_39" depart="88.00" departLane="3_1" departPos="8.10" departSpeed="11.18" departDelay="0.00" arrival="124.70" arrivalLane="-2_2" arrivalPos="200.00" arrivalSpeed="11.18" duration="36.70" routeLength="407.38" waitingTime="0.00" waitingCount="0" stopTime="0.00" timeLoss="-2.66" rerouteNo="0" devices="tripinfo_R_39" vType="car8@R_39" speedFactor="0.90" vaporized=""/>
    <tripinfo id="S_40" depart="96.00" departLane="2_0" departPos="9.10" departSpeed="11.18" departDelay="0.00" arrival="133.00" arrivalLane="-4_2" arrivalPos="200.00" arrivalSpeed="11.18" duration="37.00" routeLength="413.30" waitingTime="0.00" waitingCount="0" stopTime="0.00" timeLoss="0.00" rerouteNo="0" devices="tripinfo_S_40" vType="car9@S_40" speedFactor="1.03" vaporized=""/>
    <tripinfo id="S_41" depart="98.00" departLane="1_2" departPos="9.10" departSpeed="11.18" departDelay="0.00" arrival="135.00" arrivalLane="-3_2" arrivalPos="200.00" arrivalSpeed="11.18" duration="37.00" routeLength="413.30" waitingTime="0.00" waitingCount="0" stopTime="0.00" timeLoss="0.00" rerouteNo="0" devices="tripinfo_S_41" vType="car9@S_41" speedFactor="0.96" vaporized=""/>
    <tripinfo id="R_42" depart="100.00" departLane="4_2" departPos="8.10" departSpeed="11.18" departDelay="0.00" arrival="135.60" arrivalLane="-3_0" arrivalPos="200.00" arrivalSpeed="11.18" duration="35.60" routeLength="397.06" waitingTime="0.00" waitingCount="0" stopTime="0.00" timeLoss="-2.52" rerouteNo="0" devices="tripinfo_R_42" vType="car8@R_42" speedFactor="1.09" vaporized=""/>
    <tripinfo id="R_45" depart="101.20" departLane="4_0" departPos="6.10" departSpeed="11.18" departDelay="0.20" arrival="137.00" arrivalLane="-3_0" arrivalPos="200.00" arrivalSpeed="11.18" duration="35.80" routeLength="399.06" waitingTime="0.00" waitingCount="0" stopTime="0.00" timeLoss="-2.52" rerouteNo="0" devices="tripinfo_R_45" vType="car6@R_45" speedFactor="1.09" vaporized=""/>
    <tripinfo id="R_44" depart="101.00" departLane="2_2" departPos="9.10" departSpeed="11.18" departDelay="0.00" arrival="137.60" arrivalLane="-1_2" arrivalPos="200.00" arrivalSpeed="11.18" duration="36.60" routeLength="406.39" waitingTime="0.00" waitingCount="0" stopTime="0.00" timeLoss="-2.37" rerouteNo="0" devices="tripinfo_R_44" vType="car9@R_44" speedFactor="1.04" vaporized=""/>
    <tripinfo id="L_43" depart="101.00" departLane="1_1" departPos="8.10" departSpeed="11.18" departDelay="0.00" arrival="138.10" arrivalLane="-2_2" arrivalPos="200.00" arrivalSpeed="11.18" duration="37.10" routeLength="411.45" waitingTime="0.00" waitingCount="0" stopTime="0.00" timeLoss="-2.20" rerouteNo="0" devices="tripinfo_L_43" vType="car8@L_43" speedFactor="1.04" vaporized=""/>
    <tripinfo id="L_47" depart="102.00" departLane="4_2" departPos="6.10" departSpeed="11.18" departDelay="0.00" arrival="139.20" arrivalLane="-1_2" arrivalPos="200.00" arrivalSpeed="11.18" duration="37.20" routeLength="413.45" waitingTime="0.00" waitingCount="0" stopTime="0.00" timeLoss="-2.50" rerouteNo="0" devices="tripinfo_L_47" vType="car6@L_47" speedFactor="0.90" vaporized=""/>
    <tripinfo id="L_46" depart="102.00" departLane="1_1" departPos="5.10" departSpeed="11.18" departDelay="0.00" arrival="141.70" arrivalLane="-2_2" arrivalPos="200.00" arrivalSpeed="11.18" duration="39.70" routeLength="414.45" waitingTime="1.20" waitingCount="1" stopTime="0.00" timeLoss="-4789.54" rerouteNo="0" devices="tripinfo_L_46" vType="car5@L_46" speedFactor="1.00" vaporized=""/>
    <tripinfo id="L_48" depart="104.00" departLane="1_1" departPos="5.10" departSpeed="11.18" departDelay="0.00" arrival="142.50" arrivalLane="-2_2" arrivalPos="200.00" arrivalSpeed="11.18" duration="38.50" routeLength="414.45" waitingTime="0.00" waitingCount="0" stopTime="0.00" timeLoss="-1.42" rerouteNo="0" devices="tripinfo_L_48" vType="car5@L_48" speedFactor="0.88" vaporized=""/>
    <tripinfo id="S_49" depart="111.00" departLane="1_0" departPos="5.10" departSpeed="11.18" departDelay="0.00" arrival="148.40" arrivalLane="-3_2" arrivalPos="200.00" arrivalSpeed="11.18" duration="37.40" routeLength="417.30" waitingTime="0.00" waitingCount="0" stopTime="0.00" timeLoss="0.00" rerouteNo="0" devices="tripinfo_S_49" vType="car5@S_49" speedFactor="0.85" vaporized=""/>
    <tripinfo id="R_52" depart="113.00" departLane="2_1" departPos="7.10" departSpeed="11.18" departDelay="0.00" arrival="149.20" arrivalLane="-1_1" arrivalPos="200.00" arrivalSpeed="11.18" duration="36.20" routeLength="403.22" waitingTime="0.00" waitingCount="0" stopTime="0.00" timeLoss="-2.55" rerouteNo="0" devices="tripinfo_R_52" vType="car7@R_52" speedFactor="1.02" vaporized=""/>
    <tripinfo id="S_50" depart="111.00" departLane="2_0" departPos="7.10" departSpeed="11.18" departDelay="0.00" arrival="149.30" arrivalLane="-4_2" arrivalPos="200.00" arrivalSpeed="11.18" duration="38.30" routeLength="415.30" waitingTime="0.20" waitingCount="1" stopTime="0.00" timeLoss="-4295.58" rerouteNo="0" devices="tripinfo_S_50" vType="car7@S_50" speedFactor="0.85" vaporized=""/>
    <tripinfo id="S_51" depart="112.00" departLane="4_1" departPos="6.10" departSpeed="11.18" departDelay="0.00" arrival="150.10" arrivalLane="-2_1" arrivalPos="200.00" arrivalSpeed="11.18" duration="38.10" routeLength="416.30" waitingTime="0.00" waitingCount="0" stopTime="0.00" timeLoss="-4180.12" rerouteNo="0" devices="tripinfo_S_51" vType="car6@S_51" speedFactor="1.17" vaporized=""/>
    <tripinfo id="L_54" depart="119.00" departLane="3_0" departPos="8.10" departSpeed="11.18" departDelay="0.00" arrival="156.10" arrivalLane="-4_2" arrivalPos="200.00" arrivalSpeed="11.18" duration="37.10" routeLength="411.45" waitingTime="0.00" waitingCount="0" stopTime="0.00" timeLoss="-2.27" rerouteNo="0" devices="tripinfo_L_54" vType="car8@L_54" speedFactor="1.00" vaporized=""/>
    <tripinfo id="L_53" depart="119.00" departLane="2_2" departPos="8.10" departSpeed="11.18" departDelay="0.00" arrival="156.60" arrivalLane="-3_2" arrivalPos="200.00" arrivalSpeed="11.18" duration="37.60" routeLength="411.45" waitingTime="0.00" waitingCount="0" stopTime="0.00" timeLoss="-3.29" rerouteNo="0" devices="tripinfo_L_53" vType="car8@L_53" speedFactor="1.10" vaporized=""/>
    <tripinfo id="L_55" depart="123.00" departLane="1_0" departPos="7.10" departSpeed="11.18" departDelay="0.00" arrival="160.20" arrivalLane="-2_2" arrivalPos="200.00" arrivalSpeed="11.18" duration="37.20" routeLength="412.45" waitingTime="0.00" waitingCount="0" stopTime="0.00" timeLoss="-2.28" rerouteNo="0" devices="tripinfo_L_55" vType="car7@L_55" speedFactor="1.00" vaporized=""/>
    <tripinfo id="S_56" depart="125.00" departLane="2_2" departPos="6.10" departSpeed="11.18" departDelay="0.00" arrival="162.50" arrivalLane="-4_2" arrivalPos="200.00" arrivalSpeed="11.18" duration="37.50" routeLength="416.30" waitingTime="0.00" waitingCount="0" stopTime="0.00" timeLoss="-0.10" rerouteNo="0" devices="tripinfo_S_56" vType="car6@S_56" speedFactor="0.90" vaporized=""/>
    <tripinfo id="L_57" depart="133.00" departLane="3_0" departPos="8.10" departSpeed="11.18" departDelay="0.00" arrival="170.10" arrivalLane="-4_2" arrivalPos="200.00" arrivalSpeed="11.18" duration="37.10" routeLength="411.45" waitingTime="0.00" waitingCount="0" stopTime="0.00" timeLoss="-2.12" rerouteNo="0" devices="tripinfo_L_57" vType="car8@L_57" speedFactor="1.14" vaporized=""/>
    <tripinfo id="S_58" depart="133.00" departLane="4_1" departPos="5.10" departSpeed="11.18" departDelay="0.00" arrival="171.60" arrivalLane="-2_1" arrivalPos="200.00" arrivalSpeed="11.18" duration="38.60" routeLength="417.30" waitingTime="0.30" waitingCount="1" stopTime="0.00" timeLoss="-4058.71" rerouteNo="0" devices="tripinfo_S_58" vType="car5@S_58" speedFactor="1.02" vaporized=""/>
    <tripinfo id="L_59" depart="134.00" departLane="3_1" departPos="5.10" departSpeed="11.18" departDelay="0.00" arrival="172.90" arrivalLane="-4_2" arrivalPos="200.00" arrivalSpeed="11.18" duration="38.90" routeLength="414.45" waitingTime="0.40" waitingCount="1" stopTime="0.00" timeLoss="-4165.15" rerouteNo="0" devices="tripinfo_L_59" vType="car5@L_59" speedFactor="0.97" vaporized=""/>
    <tripinfo id="L_60" depart="135.00" departLane="4_0" departPos="8.10" departSpeed="11.18" departDelay="0.00" arrival="174.80" arrivalLane="-1_1" arrivalPos="200.00" arrivalSpeed="11.18" duration="39.80" routeLength="416.34" waitingTime="1.20" waitingCount="1" stopTime="0.00" timeLoss="-4308.23" rerouteNo="0" devices="tripinfo_L_60" vType="car8@L_60" speedFactor="1.08" vaporized=""/>
    <tripinfo id="L_61" depart="143.00" departLane="1_1" departPos="6.10" departSpeed="11.18" departDelay="0.00" arrival="180.20" arrivalLane="-2_2" arrivalPos="200.00" arrivalSpeed="11.18" duration="37.20" routeLength="413.45" waitingTime="0.00" waitingCount="0" stopTime="0.00" timeLoss="-2.11" rerouteNo="0" devices="tripinfo_L_61" vType="car6@L_61" speedFactor="1.12" vaporized=""/>
    <tripinfo id="S_62" depart="143.00" departLane="2_0" departPos="5.10" departSpeed="11.18" departDelay="0.00" arrival="181.00" arrivalLane="-4_0" arrivalPos="200.00" arrivalSpeed="11.18" duration="38.00" routeLength="417.30" waitingTime="0.00" waitingCount="0" stopTime="0.00" timeLoss="-1.20" rerouteNo="0" devices="tripinfo_S_62" vType="car5@S_62" speedFactor="1.02" vaporized=""/>
    <tripinfo id="L_63" depart="148.00" departLane="4_0" departPos="5.10" departSpeed="11.18" departDelay="0.00" arrival="185.30" arrivalLane="-1_2" arrivalPos="200.00" arrivalSpeed="11.18" duration="37.30" routeLength="414.45" waitingTime="0.00" waitingCount="0" stopTime="0.00" timeLoss="-2.29" rerouteNo="0" devices="tripinfo_L_63" vType="car5@L_63" speedFactor="0.99" vaporized=""/>
    <tripinfo id="L_64" depart="152.00" departLane="4_0" departPos="6.10" departSpeed="11.18" departDelay="0.00" arrival="189.20" arrivalLane="-1_2" arrivalPos="200.00" arrivalSpeed="11.18" duration="37.20" routeLength="413.45" waitingTime="0.00" waitingCount="0" stopTime="0.00" timeLoss="-2.40" rerouteNo="0" devices="tripinfo_L_64" vType="car6@L_64" speedFactor="0.94" vaporized=""/>
    <tripinfo id="R_66" depart="156.00" departLane="3_2" departPos="9.10" departSpeed="11.18" departDelay="0.00" arrival="192.10" arrivalLane="-2_1" arrivalPos="200.00" arrivalSpeed="11.18" duration="36.10" routeLength="401.22" waitingTime="0.00" waitingCount="0" stopTime="0.00" timeLoss="-2.78" rerouteNo="0" devices="tripinfo_R_66" vType="car9@R_66" speedFactor="0.91" vaporized=""/>
    <tripinfo id="S_65" depart="155.00" departLane="4_2" departPos="5.10" departSpeed="11.18" departDelay="0.00" arrival="192.40" arrivalLane="-2_2" arrivalPos="200.00" arrivalSpeed="11.18" duration="37.40" routeLength="417.30" waitingTime="0.00" waitingCount="0" stopTime="0.00" timeLoss="0.00" rerouteNo="0" devices="tripinfo_S_65" vType="car5@S_65" speedFactor="0.88" vaporized=""/>
    <tripinfo id="R_68" depart="158.00" departLane="2_1" departPos="8.10" departSpeed="11.18" departDelay="0.00" arrival="194.10" arrivalLane="-1_1" arrivalPos="200.00" arrivalSpeed="11.18" duration="36.10" routeLength="402.22" waitingTime="0.00" waitingCount="0" stopTime="0.00" timeLoss="-2.54" rerouteNo="0" devices="tripinfo_R_68" vType="car8@R_68" speedFactor="1.04" vaporized=""/>
    <tripinfo id="L_67" depart="157.00" departLane="2_0" departPos="8.10" departSpeed="11.18" departDelay="0.00" arrival="194.40" arrivalLane="-3_2" arrivalPos="200.00" arrivalSpeed="11.18" duration="37.40" routeLength="411.45" waitingTime="0.00" waitingCount="0" stopTime="0.00" timeLoss="-2.58" rerouteNo="0" devices="tripinfo_L_67" vType="car8@L_67" speedFactor="0.91" vaporized=""/>
    <tripinfo id="L_69" depart="158.00" departLane="4_0" departPos="7.10" departSpeed="11.18" departDelay="0.00" arrival="198.00" arrivalLane="-1_0" arrivalPos="200.00" arrivalSpeed="11.18" duration="40.00" routeLength="422.16" waitingTime="1.00" waitingCount="1" stopTime="0.00" timeLoss="-4297.71" rerouteNo="0" devices="tripinfo_L_69" vType="car7@L_69" speedFactor="1.02" vaporized=""/>
    <tripinfo id="R_70" depart="163.00" departLane="2_2" departPos="6.10" departSpeed="11.18" departDelay="0.00" arrival="199.60" arrivalLane="-1_0" arrivalPos="200.00" arrivalSpeed="11.18" duration="36.60" routeLength="399.06" waitingTime="0.00" waitingCount="0" stopTime="0.00" timeLoss="-7.62" rerouteNo="0" devices="tripinfo_R_70" vType="car6@R_70" speedFactor="1.02" vaporized=""/>
    <tripinfo id="S_71" depart="170.00" departLane="2_0" departPos="6.10" departSpeed="11.18" departDelay="0.00" arrival="207.30" arrivalLane="-4_2" arrivalPos="200.00" arrivalSpeed="11.18" duration="37.30" routeLength="416.30" waitingTime="0.00" waitingCount="0" stopTime="0.00" timeLoss="0.00" rerouteNo="0" devices="tripinfo_S_71" vType="car6@S_71" speedFactor="0.97" vaporized=""/>
    <tripinfo id="R_72" depart="171.00" departLane="1_2" departPos="8.10" departSpeed="11.18" departDelay="0.00" arrival="208.70" arrivalLane="-4_2" arrivalPos="200.00" arrivalSpeed="11.18" duration="37.70" routeLength="407.38" waitingTime="0.20" waitingCount="1" stopTime="0.00" timeLoss="-4408.15" rerouteNo="0" devices="tripinfo_R_72" vType="car8@R_72" speedFactor="0.94" vaporized=""/>
    <tripinfo id="S_73" depart="175.00" departLane="2_0" departPos="8.10" departSpeed="11.18" departDelay="0.00" arrival="212.10" arrivalLane="-4_2" arrivalPos="200.00" arrivalSpeed="11.18" duration="37.10" routeLength="414.30" waitingTime="0.00" waitingCount="0" stopTime="0.00" timeLoss="0.00" rerouteNo="0" devices="tripinfo_S_73" vType="car8@S_73" speedFactor="1.06" vaporized=""/>