<?xml version="1.0" encoding="UTF-8"?>

<!-- generated on 04/22/21 01:23:13 by Eclipse SUMO GUI Version 1.8.0
<configuration xmlns:xsi="http://www.w3.org/2001/XMLSchema-instance" xsi:noNamespaceSchemaLocation="http://sumo.dlr.de/xsd/sumoConfiguration.xsd">

    <input>
        <net-file value="data/lane3.net.xml"/>
        <route-files value="data/icacc+.rou.xml"/>
        <additional-files value="data/icacc+.det.xml"/>
    </input>

    <output>
        <tripinfo-output value="tripinfo.xml"/>
    </output>

    <time>
        <begin value="0"/>
        <step-length value="0.1"/>
    </time>

    <processing>
        <collision.mingap-factor value="0"/>
        <time-to-teleport value="-1"/>
        <lanechange.duration value="0.5"/>
    </processing>

    <report>
        <verbose value="true"/>
        <no-step-log value="true"/>
    </report>

    <traci_server>
        <remote-port value="12846"/>
    </traci_server>

    <gui_only>
        <start value="true"/>
        <tracker-interval value="0.1"/>
    </gui_only>

</configuration>
-->

<tripinfos xmlns:xsi="http://www.w3.org/2001/XMLSchema-instance" xsi:noNamespaceSchemaLocation="http://sumo.dlr.de/xsd/tripinfo_file.xsd">
    <tripinfo id="R_1" depart="8.00" departLane="3_2" departPos="8.10" departSpeed="11.18" departDelay="0.00" arrival="44.40" arrivalLane="-2_0" arrivalPos="200.00" arrivalSpeed="11.18" duration="36.40" routeLength="397.06" waitingTime="0.00" waitingCount="0" stopTime="0.00" timeLoss="-4408.42" rerouteNo="0" devices="tripinfo_R_1" vType="car8@R_1" speedFactor="0.94" vaporized=""/>
    <tripinfo id="S_0" depart="6.00" departLane="2_1" departPos="7.10" departSpeed="11.18" departDelay="0.00" arrival="48.20" arrivalLane="-4_2" arrivalPos="200.00" arrivalSpeed="11.18" duration="42.20" routeLength="415.30" waitingTime="4.10" waitingCount="1" stopTime="0.00" timeLoss="-4295.59" rerouteNo="0" devices="tripinfo_S_0" vType="car7@S_0" speedFactor="1.06" vaporized=""/>
    <tripinfo id="S_2" depart="10.00" departLane="4_2" departPos="6.10" departSpeed="11.18" departDelay="0.00" arrival="53.80" arrivalLane="-2_2" arrivalPos="200.00" arrivalSpeed="11.18" duration="43.80" routeLength="416.30" waitingTime="5.60" waitingCount="1" stopTime="0.00" timeLoss="-4180.09" rerouteNo="0" devices="tripinfo_S_2" vType="car6@S_2" speedFactor="1.01" vaporized=""/>
    <tripinfo id="S_3" depart="12.00" departLane="1_1" departPos="9.10" departSpeed="11.18" departDelay="0.00" arrival="54.70" arrivalLane="-3_2" arrivalPos="200.00" arrivalSpeed="11.18" duration="42.70" routeLength="413.30" waitingTime="4.70" waitingCount="1" stopTime="0.00" timeLoss="-4526.49" rerouteNo="0" devices="tripinfo_S_3" vType="car9@S_3" speedFactor="1.08" vaporized=""/>
    <tripinfo id="R_7" depart="16.00" departLane="2_0" departPos="6.10" departSpeed="11.18" departDelay="0.00" arrival="56.50" arrivalLane="-1_0" arrivalPos="200.00" arrivalSpeed="11.18" duration="40.50" routeLength="399.06" waitingTime="3.80" waitingCount="1" stopTime="0.00" timeLoss="-4182.82" rerouteNo="0" devices="tripinfo_R_7" vType="car6@R_7" speedFactor="0.89" vaporized=""/>
    <tripinfo id="S_5" depart="14.00" departLane="3_1" departPos="7.10" departSpeed="11.18" departDelay="0.00" arrival="57.90" arrivalLane="-1_2" arrivalPos="200.00" arrivalSpeed="11.18" duration="43.90" routeLength="415.30" waitingTime="5.80" waitingCount="1" stopTime="0.00" timeLoss="-4295.59" rerouteNo="0" devices="tripinfo_S_5" vType="car7@S_5" speedFactor="0.83" vaporized=""/>
    <tripinfo id="S_4" depart="13.00" departLane="2_1" departPos="9.10" departSpeed="11.18" departDelay="0.00" arrival="59.50" arrivalLane="-4_2" arrivalPos="200.00" arrivalSpeed="11.18" duration="46.50" routeLength="413.30" waitingTime="8.50" waitingCount="1" stopTime="0.00" timeLoss="-4526.49" rerouteNo="0" devices="tripinfo_S_4" vType="car9@S_4" speedFactor="1.03" vaporized=""/>
    <tripinfo id="R_8" depart="21.00" departLane="2_2" departPos="5.10" departSpeed="11.18" departDelay="0.00" arrival="60.20" arrivalLane="-1_0" arrivalPos="200.00" arrivalSpeed="11.18" duration="39.20" routeLength="400.06" waitingTime="2.00" waitingCount="1" stopTime="0.00" timeLoss="-4950.58" rerouteNo="0" devices="tripinfo_R_8" vType="car5@R_8" speedFactor="0.94" vaporized=""/>
    <tripinfo id="S_6" depart="15.00" departLane="2_0" departPos="5.10" departSpeed="11.18" departDelay="0.00" arrival="60.50" arrivalLane="-4_2" arrivalPos="200.00" arrivalSpeed="11.18" duration="45.50" routeLength="417.30" waitingTime="7.00" waitingCount="1" stopTime="0.00" timeLoss="8.17" rerouteNo="0" devices="tripinfo_S_6" vType="car5@S_6" speedFactor="1.05" vaporized=""/>
    <tripinfo id="R_10" depart="23.00" departLane="4_0" departPos="6.10" departSpeed="11.18" departDelay="0.00" arrival="62.70" arrivalLane="-3_0" arrivalPos="200.00" arrivalSpeed="11.18" duration="39.70" routeLength="399.06" waitingTime="3.00" waitingCount="1" stopTime="0.00" timeLoss="-4182.61" rerouteNo="0" devices="tripinfo_R_10" vType="car6@R_10" speedFactor="1.09" vaporized=""/>
    <tripinfo id="S_9" depart="22.00" departLane="4_0" departPos="7.10" departSpeed="11.18" departDelay="0.00" arrival="64.60" arrivalLane="-2_2" arrivalPos="200.00" arrivalSpeed="11.18" duration="42.60" routeLength="415.30" waitingTime="4.50" waitingCount="1" stopTime="0.00" timeLoss="-4295.59" rerouteNo="0" devices="tripinfo_S_9" vType="car7@S_9" speedFactor="0.86" vaporized=""/>
    <tripinfo id="S_11" depart="24.00" departLane="1_2" departPos="9.10" departSpeed="11.18" departDelay="0.00" arrival="65.70" arrivalLane="-3_2" arrivalPos="200.00" arrivalSpeed="11.18" duration="41.70" routeLength="413.30" waitingTime="3.70" waitingCount="1" stopTime="0.00" timeLoss="-4526.49" rerouteNo="0" devices="tripinfo_S_11" vType="car9@S_11" speedFactor="1.03" vaporized=""/>
    <tripinfo id="S_12" depart="24.00" departLane="3_0" departPos="6.10" departSpeed="11.18" departDelay="0.00" arrival="66.20" arrivalLane="-1_2" arrivalPos="200.00" arrivalSpeed="11.18" duration="42.20" routeLength="416.30" waitingTime="4.00" waitingCount="1" stopTime="0.00" timeLoss="-4180.09" rerouteNo="0" devices="tripinfo_S_12" vType="car6@S_12" speedFactor="1.05" vaporized=""/>
    <tripinfo id="L_16" depart="27.00" departLane="4_1" departPos="5.10" departSpeed="11.18" departDelay="0.00" arrival="68.40" arrivalLane="-1_2" arrivalPos="200.00" arrivalSpeed="11.18" duration="41.40" routeLength="414.45" waitingTime="2.00" waitingCount="1" stopTime="0.00" timeLoss="-4860.74" rerouteNo="0" devices="tripinfo_L_16" vType="car5@L_16" speedFactor="0.88" vaporized=""/>
    <tripinfo id="R_13" depart="26.00" departLane="1_0" departPos="6.10" departSpeed="11.18" departDelay="0.00" arrival="69.40" arrivalLane="-4_0" arrivalPos="200.00" arrivalSpeed="11.18" duration="43.40" routeLength="399.06" waitingTime="6.70" waitingCount="1" stopTime="0.00" timeLoss="-4182.59" rerouteNo="0" devices="tripinfo_R_13" vType="car6@R_13" speedFactor="1.12" vaporized=""/>
    <tripinfo id="R_17" depart="28.40" departLane="4_2" departPos="8.10" departSpeed="11.18" departDelay="0.40" arrival="69.50" arrivalLane="-3_0" arrivalPos="200.00" arrivalSpeed="11.18" duration="41.10" routeLength="397.06" waitingTime="4.60" waitingCount="1" stopTime="0.00" timeLoss="-4408.27" rerouteNo="0" devices="tripinfo_R_17" vType="car8@R_17" speedFactor="0.94" vaporized=""/>
    <tripinfo id="R_21" depart="30.00" departLane="3_2" departPos="6.10" departSpeed="11.18" departDelay="0.00" arrival="70.20" arrivalLane="-2_0" arrivalPos="200.00" arrivalSpeed="11.18" duration="40.20" routeLength="399.06" waitingTime="2.40" waitingCount="1" stopTime="0.00" timeLoss="-1.70" rerouteNo="0" devices="tripinfo_R_21" vType="car6@R_21" speedFactor="1.01" vaporized=""/>
    <tripinfo id="L_15" depart="27.00" departLane="3_1" departPos="9.10" departSpeed="11.18" departDelay="0.00" arrival="70.70" arrivalLane="-4_0" arrivalPos="200.00" arrivalSpeed="11.18" duration="43.70" routeLength="420.16" waitingTime="4.80" waitingCount="1" stopTime="0.00" timeLoss="-4528.61" rerouteNo="0" devices="tripinfo_L_15" vType="car9@L_15" speedFactor="0.93" vaporized=""/>
    <tripinfo id="R_19" depart="29.00" departLane="2_1" departPos="8.10" departSpeed="11.18" departDelay="0.00" arrival="71.70" arrivalLane="-1_0" arrivalPos="200.00" arrivalSpeed="11.18" duration="42.70" routeLength="397.06" waitingTime="6.20" waitingCount="1" stopTime="0.00" timeLoss="-4408.08" rerouteNo="0" devices="tripinfo_R_19" vType="car8@R_19" speedFactor="1.16" vaporized=""/>
    <tripinfo id="S_22" depart="32.00" departLane="1_1" departPos="8.10" departSpeed="11.18" departDelay="0.00" arrival="73.00" arrivalLane="-3_2" arrivalPos="200.00" arrivalSpeed="11.18" duration="41.00" routeLength="414.30" waitingTime="3.00" waitingCount="1" stopTime="0.00" timeLoss="-4405.61" rerouteNo="0" devices="tripinfo_S_22" vType="car8@S_22" speedFactor="0.98" vaporized=""/>
    <tripinfo id="S_25" depart="34.00" departLane="4_1" departPos="7.10" departSpeed="11.18" departDelay="0.00" arrival="75.60" arrivalLane="-2_1" arrivalPos="200.00" arrivalSpeed="11.18" duration="41.60" routeLength="415.30" waitingTime="3.50" waitingCount="1" stopTime="0.00" timeLoss="-4295.59" rerouteNo="0" devices="tripinfo_S_25" vType="car7@S_25" speedFactor="0.87" vaporized=""/>
    <tripinfo id="R_23" depart="33.00" departLane="4_2" departPos="5.10" departSpeed="11.18" departDelay="0.00" arrival="76.40" arrivalLane="-3_0" arrivalPos="200.00" arrivalSpeed="11.18" duration="43.40" routeLength="400.06" waitingTime="5.50" waitingCount="2" stopTime="0.00" timeLoss="-4861.12" rerouteNo="0" devices="tripinfo_R_23" vType="car5@R_23" speedFactor="0.89" vaporized=""/>
    <tripinfo id="S_29" depart="39.00" departLane="4_1" departPos="5.10" departSpeed="11.18" departDelay="0.00" arrival="76.50" arrivalLane="-2_1" arrivalPos="200.00" arrivalSpeed="11.18" duration="37.50" routeLength="417.30" waitingTime="0.00" waitingCount="0" stopTime="0.00" timeLoss="0.10" rerouteNo="0" devices="tripinfo_S_29" vType="car5@S_29" speedFactor="0.93" vaporized=""/>
    <tripinfo id="L_24" depart="34.00" departLane="2_2" departPos="5.10" departSpeed="11.18" departDelay="0.00" arrival="77.90" arrivalLane="-3_2" arrivalPos="200.00" arrivalSpeed="11.18" duration="43.90" routeLength="414.45" waitingTime="5.70" waitingCount="1" stopTime="0.00" timeLoss="-4061.41" rerouteNo="0" devices="tripinfo_L_24" vType="car5@L_24" speedFactor="0.83" vaporized=""/>
    <tripinfo id="L_26" depart="36.00" departLane="2_1" departPos="8.10" departSpeed="11.18" departDelay="0.00" arrival="79.30" arrivalLane="-3_2" arrivalPos="200.00" arrivalSpeed="11.18" duration="43.30" routeLength="411.45" waitingTime="4.50" waitingCount="1" stopTime="0.00" timeLoss="2.61" rerouteNo="0" devices="tripinfo_L_26" vType="car8@L_26" speedFactor="0.92" vaporized=""/>
    <tripinfo id="R_18" depart="29.00" departLane="1_0" departPos="8.10" departSpeed="11.18" departDelay="0.00" arrival="79.90" arrivalLane="-4_0" arrivalPos="200.00" arrivalSpeed="11.18" duration="50.90" routeLength="397.06" waitingTime="12.20" waitingCount="2" stopTime="0.00" timeLoss="-4801.00" rerouteNo="0" devices="tripinfo_R_18" vType="car8@R_18" speedFactor="0.94" vaporized=""/>
    <tripinfo id="R_20" depart="30.00" departLane="1_2" departPos="6.10" departSpeed="11.18" departDelay="0.00" arrival="80.90" arrivalLane="-4_0" arrivalPos="200.00" arrivalSpeed="11.18" duration="50.90" routeLength="399.06" waitingTime="11.90" waitingCount="2" stopTime="0.00" timeLoss="12.43" rerouteNo="0" devices="tripinfo_R_20" vType="car6@R_20" speedFactor="1.02" vaporized=""/>
    <tripinfo id="S_28" depart="37.00" departLane="3_0" departPos="8.10" departSpeed="11.18" departDelay="0.00" arrival="81.40" arrivalLane="-1_1" arrivalPos="200.00" arrivalSpeed="11.18" duration="44.40" routeLength="414.30" waitingTime="6.40" waitingCount="1" stopTime="0.00" timeLoss="-4405.61" rerouteNo="0" devices="tripinfo_S_28" vType="car8@S_28" speedFactor="1.13" vaporized=""/>
    <tripinfo id="R_39" depart="46.00" departLane="4_0" departPos="7.10" departSpeed="11.18" departDelay="0.00" arrival="81.70" arrivalLane="-3_0" arrivalPos="200.00" arrivalSpeed="11.18" duration="35.70" routeLength="398.06" waitingTime="0.00" waitingCount="0" stopTime="0.00" timeLoss="-2.71" rerouteNo="0" devices="tripinfo_R_39" vType="car7@R_39" speedFactor="0.90" vaporized=""/>
    <tripinfo id="R_27" depart="37.00" departLane="1_2" departPos="6.10" departSpeed="11.18" departDelay="0.00" arrival="81.80" arrivalLane="-4_0" arrivalPos="200.00" arrivalSpeed="11.18" duration="44.80" routeLength="399.06" waitingTime="7.80" waitingCount="1" stopTime="0.00" timeLoss="6.26" rerouteNo="0" devices="tripinfo_R_27" vType="car6@R_27" speedFactor="0.95" vaporized=""/>
    <tripinfo id="S_32" depart="41.00" departLane="4_1" departPos="6.10" departSpeed="11.18" departDelay="0.00" arrival="82.30" arrivalLane="-2_2" arrivalPos="200.00" arrivalSpeed="11.18" duration="41.30" routeLength="416.30" waitingTime="3.10" waitingCount="1" stopTime="0.00" timeLoss="-4180.09" rerouteNo="0" devices="tripinfo_S_32" vType="car6@S_32" speedFactor="1.01" vaporized=""/>
    <tripinfo id="L_34" depart="43.00" departLane="4_0" departPos="5.10" departSpeed="11.18" departDelay="0.00" arrival="83.10" arrivalLane="-1_2" arrivalPos="200.00" arrivalSpeed="11.18" duration="40.10" routeLength="414.45" waitingTime="1.60" waitingCount="1" stopTime="0.00" timeLoss="0.45" rerouteNo="0" devices="tripinfo_L_34" vType="car5@L_34" speedFactor="0.99" vaporized=""/>
    <tripinfo id="L_14" depart="26.00" departLane="3_0" departPos="8.10" departSpeed="11.18" departDelay="0.00" arrival="83.30" arrivalLane="-4_2" arrivalPos="200.00" arrivalSpeed="11.18" duration="57.30" routeLength="411.45" waitingTime="18.10" waitingCount="2" stopTime="0.00" timeLoss="-4966.29" rerouteNo="0" devices="tripinfo_L_14" vType="car8@L_14" speedFactor="0.99" vaporized=""/>
    <tripinfo id="R_31" depart="41.00" departLane="1_0" departPos="8.10" departSpeed="11.18" departDelay="0.00" arrival="85.00" arrivalLane="-4_2" arrivalPos="200.00" arrivalSpeed="11.18" duration="44.00" routeLength="407.38" waitingTime="6.50" waitingCount="1" stopTime="0.00" timeLoss="-4407.79" rerouteNo="0" devices="tripinfo_R_31" vType="car8@R_31" speedFactor="1.15" vaporized=""/>
    <tripinfo id="S_35" depart="44.20" departLane="4_2" departPos="6.10" departSpeed="11.18" departDelay="0.20" arrival="85.80" arrivalLane="-2_2" arrivalPos="200.00" arrivalSpeed="11.18" duration="41.60" routeLength="416.30" waitingTime="2.00" waitingCount="2" stopTime="0.00" timeLoss="-4378.33" rerouteNo="0" devices="tripinfo_S_35" vType="car6@S_35" speedFactor="1.02" vaporized=""/>
    <tripinfo id="R_38" depart="46.00" departLane="3_2" departPos="7.10" departSpeed="11.18" departDelay="0.00" arrival="86.40" arrivalLane="-2_0" arrivalPos="200.00" arrivalSpeed="11.18" duration="40.40" routeLength="398.06" waitingTime="3.80" waitingCount="1" stopTime="0.00" timeLoss="-4298.10" rerouteNo="0" devices="tripinfo_R_38" vType="car7@R_38" speedFactor="1.10" vaporized=""/>
    <tripinfo id="S_36" depart="45.00" departLane="4_1" departPos="5.10" departSpeed="11.18" departDelay="0.00" arrival="88.70" arrivalLane="-2_1" arrivalPos="200.00" arrivalSpeed="11.18" duration="43.70" routeLength="417.30" waitingTime="5.40" waitingCount="1" stopTime="0.00" timeLoss="-4058.72" rerouteNo="0" devices="tripinfo_S_36" vType="car5@S_36" speedFactor="0.97" vaporized=""/>
    <tripinfo id="L_30" depart="40.00" departLane="2_2" departPos="8.10" departSpeed="11.18" departDelay="0.00" arrival="89.50" arrivalLane="-3_2" arrivalPos="200.00" arrivalSpeed="11.18" duration="49.50" routeLength="411.45" waitingTime="9.70" waitingCount="2" stopTime="0.00" timeLoss="-4637.39" rerouteNo="0" devices="tripinfo_L_30" vType="car8@L_30" speedFactor="1.18" vaporized=""/>
    <tripinfo id="R_42" depart="50.00" departLane="4_0" departPos="7.10" departSpeed="11.18" departDelay="0.00" arrival="89.80" arrivalLane="-3_0" arrivalPos="200.00" arrivalSpeed="11.18" duration="39.80" routeLength="398.06" waitingTime="3.20" waitingCount="1" stopTime="0.00" timeLoss="-4298.10" rerouteNo="0" devices="tripinfo_R_42" vType="car7@R_42" speedFactor="1.09" vaporized=""/>
    <tripinfo id="S_33" depart="43.00" departLane="1_0" departPos="8.10" departSpeed="11.18" departDelay="0.00" arrival="90.70" arrivalLane="-3_1" arrivalPos="200.00" arrivalSpeed="11.18" duration="47.70" routeLength="414.30" waitingTime="9.70" waitingCount="1" stopTime="0.00" timeLoss="-4405.61" rerouteNo="0" devices="tripinfo_S_33" vType="car8@S_33" speedFactor="1.17" vaporized=""/>
    <tripinfo id="R_44" depart="54.00" departLane="2_0" departPos="9.10" departSpeed="11.18" departDelay="0.00" arrival="91.10" arrivalLane="-1_0" arrivalPos="200.00" arrivalSpeed="11.18" duration="37.10" routeLength="396.06" waitingTime="0.60" waitingCount="1" stopTime="0.00" timeLoss="-4529.05" rerouteNo="0" devices="tripinfo_R_44" vType="car9@R_44" speedFactor="1.04" vaporized=""/>
    <tripinfo id="S_40" depart="47.00" departLane="2_0" departPos="7.10" departSpeed="11.18" departDelay="0.00" arrival="91.60" arrivalLane="-4_2" arrivalPos="200.00" arrivalSpeed="11.18" duration="44.60" routeLength="415.30" waitingTime="4.50" waitingCount="3" stopTime="0.00" timeLoss="-4837.71" rerouteNo="0" devices="tripinfo_S_40" vType="car7@S_40" speedFactor="1.03" vaporized=""/>
    <tripinfo id="S_41" depart="48.00" departLane="3_2" departPos="9.10" departSpeed="11.18" departDelay="0.00" arrival="93.40" arrivalLane="-1_2" arrivalPos="200.00" arrivalSpeed="11.18" duration="45.40" routeLength="413.30" waitingTime="7.40" waitingCount="1" stopTime="0.00" timeLoss="-4526.49" rerouteNo="0" devices="tripinfo_S_41" vType="car9@S_41" speedFactor="0.96" vaporized=""/>
    <tripinfo id="S_37" depart="46.00" departLane="1_1" departPos="5.10" departSpeed="11.18" departDelay="0.00" arrival="93.50" arrivalLane="-3_1" arrivalPos="200.00" arrivalSpeed="11.18" duration="47.50" routeLength="417.30" waitingTime="8.10" waitingCount="2" stopTime="0.00" timeLoss="-4840.07" rerouteNo="0" devices="tripinfo_S_37" vType="car5@S_37" speedFactor="1.18" vaporized=""/>
    <tripinfo id="L_43" depart="52.00" departLane="2_0" departPos="6.10" departSpeed="11.18" departDelay="0.00" arrival="94.10" arrivalLane="-3_2" arrivalPos="200.00" arrivalSpeed="11.18" duration="42.10" routeLength="413.45" waitingTime="1.90" waitingCount="3" stopTime="0.00" timeLoss="-4617.83" rerouteNo="0" devices="tripinfo_L_43" vType="car6@L_43" speedFactor="1.04" vaporized=""/>
    <tripinfo id="R_45" depart="55.00" departLane="3_2" departPos="8.10" departSpeed="11.18" departDelay="0.00" arrival="95.10" arrivalLane="-2_0" arrivalPos="200.00" arrivalSpeed="11.18" duration="40.10" routeLength="397.06" waitingTime="3.60" waitingCount="1" stopTime="0.00" timeLoss="-4408.13" rerouteNo="0" devices="tripinfo_R_45" vType="car8@R_45" speedFactor="1.09" vaporized=""/>
    <tripinfo id="L_46" depart="59.00" departLane="3_0" departPos="6.10" departSpeed="11.18" departDelay="0.00" arrival="97.70" arrivalLane="-4_2" arrivalPos="200.00" arrivalSpeed="11.18" duration="38.70" routeLength="413.45" waitingTime="0.60" waitingCount="1" stopTime="0.00" timeLoss="-4182.37" rerouteNo="0" devices="tripinfo_L_46" vType="car6@L_46" speedFactor="1.00" vaporized=""/>
    <tripinfo id="L_53" depart="66.40" departLane="2_1" departPos="8.10" departSpeed="11.18" departDelay="0.40" arrival="103.50" arrivalLane="-3_2" arrivalPos="200.00" arrivalSpeed="11.18" duration="37.10" routeLength="411.45" waitingTime="0.00" waitingCount="0" stopTime="0.00" timeLoss="-2.12" rerouteNo="0" devices="tripinfo_L_53" vType="car8@L_53" speedFactor="1.10" vaporized=""/>
    <tripinfo id="R_52" depart="66.00" departLane="1_2" departPos="8.10" departSpeed="11.18" departDelay="0.00" arrival="104.10" arrivalLane="-4_0" arrivalPos="200.00" arrivalSpeed="11.18" duration="38.10" routeLength="397.06" waitingTime="0.80" waitingCount="1" stopTime="0.00" timeLoss="-4576.64" rerouteNo="0" devices="tripinfo_R_52" vType="car8@R_52" speedFactor="1.02" vaporized=""/>
    <tripinfo id="L_47" depart="60.00" departLane="1_0" departPos="5.10" departSpeed="11.18" departDelay="0.00" arrival="104.50" arrivalLane="-2_2" arrivalPos="200.00" arrivalSpeed="11.18" duration="44.50" routeLength="414.45" waitingTime="6.30" waitingCount="1" stopTime="0.00" timeLoss="-4061.21" rerouteNo="0" devices="tripinfo_L_47" vType="car5@L_47" speedFactor="0.90" vaporized=""/>
    <tripinfo id="S_50" depart="65.00" departLane="1_0" departPos="9.10" departSpeed="11.18" departDelay="0.00" arrival="107.80" arrivalLane="-3_1" arrivalPos="200.00" arrivalSpeed="11.18" duration="42.80" routeLength="413.30" waitingTime="4.80" waitingCount="1" stopTime="0.00" timeLoss="-4526.49" rerouteNo="0" devices="tripinfo_S_50" vType="car9@S_50" speedFactor="0.85" vaporized=""/>
    <tripinfo id="L_48" depart="63.00" departLane="3_2" departPos="5.10" departSpeed="11.18" departDelay="0.00" arrival="109.00" arrivalLane="-4_2" arrivalPos="200.00" arrivalSpeed="11.18" duration="46.00" routeLength="414.45" waitingTime="7.80" waitingCount="1" stopTime="0.00" timeLoss="-4061.27" rerouteNo="0" devices="tripinfo_L_48" vType="car5@L_48" speedFactor="0.88" vaporized=""/>
    <tripinfo id="S_51" depart="65.00" departLane="2_0" departPos="8.10" departSpeed="11.18" departDelay="0.00" arrival="109.30" arrivalLane="-4_1" arrivalPos="200.00" arrivalSpeed="11.18" duration="44.30" routeLength="414.30" waitingTime="6.30" waitingCount="1" stopTime="0.00" timeLoss="-4405.61" rerouteNo="0" devices="tripinfo_S_51" vType="car8@S_51" speedFactor="1.17" vaporized=""/>
    <tripinfo id="S_49" depart="64.00" departLane="3_1" departPos="7.10" departSpeed="11.18" departDelay="0.00" arrival="110.60" arrivalLane="-1_2" arrivalPos="200.00" arrivalSpeed="11.18" duration="46.60" routeLength="415.30" waitingTime="6.60" waitingCount="1" stopTime="0.00" timeLoss="7.77" rerouteNo="0" devices="tripinfo_S_49" vType="car7@S_49" speedFactor="0.85" vaporized=""/>
    <tripinfo id="L_55" depart="70.00" departLane="3_1" departPos="9.10" departSpeed="11.18" departDelay="0.00" arrival="114.50" arrivalLane="-4_0" arrivalPos="200.00" arrivalSpeed="11.18" duration="44.50" routeLength="420.16" waitingTime="0.00" waitingCount="0" stopTime="0.00" timeLoss="-3.48" rerouteNo="0" devices="tripinfo_L_55" vType="car9@L_55" speedFactor="1.00" vaporized=""/>
    <tripinfo id="S_56" depart="72.00" departLane="2_0" departPos="5.10" departSpeed="11.18" departDelay="0.00" arrival="116.30" arrivalLane="-4_1" arrivalPos="200.00" arrivalSpeed="11.18" duration="44.30" routeLength="417.30" waitingTime="5.10" waitingCount="1" stopTime="0.00" timeLoss="-4825.28" rerouteNo="0" devices="tripinfo_S_56" vType="car5@S_56" speedFactor="0.90" vaporized=""/>
    <tripinfo id="L_54" depart="70.00" departLane="1_0" departPos="7.10" departSpeed="11.18" departDelay="0.00" arrival="117.60" arrivalLane="-2_2" arrivalPos="200.00" arrivalSpeed="11.18" duration="47.60" routeLength="412.45" waitingTime="9.60" waitingCount="1" stopTime="0.00" timeLoss="-4297.85" rerouteNo="0" devices="tripinfo_L_54" vType="car7@L_54" speedFactor="1.00" vaporized=""/>
    <tripinfo id="S_58" depart="79.00" departLane="1_0" departPos="7.10" departSpeed="11.18" departDelay="0.00" arrival="118.90" arrivalLane="-3_0" arrivalPos="200.00" arrivalSpeed="11.18" duration="39.90" routeLength="415.30" waitingTime="0.00" waitingCount="0" stopTime="0.00" timeLoss="-0.25" rerouteNo="0" devices="tripinfo_S_58" vType="car7@S_58" speedFactor="1.02" vaporized=""/>
    <tripinfo id="L_57" depart="75.00" departLane="1_0" departPos="9.10" departSpeed="11.18" departDelay="0.00" arrival="119.50" arrivalLane="-2_2" arrivalPos="200.00" arrivalSpeed="11.18" duration="44.50" routeLength="410.45" waitingTime="5.40" waitingCount="1" stopTime="0.00" timeLoss="-126.38" rerouteNo="0" devices="tripinfo_L_57" vType="car9@L_57" speedFactor="1.14" vaporized=""/>
    <tripinfo id="L_59" depart="79.00" departLane="4_1" departPos="7.10" departSpeed="11.18" departDelay="0.00" arrival="121.30" arrivalLane="-1_2" arrivalPos="200.00" arrivalSpeed="11.18" duration="42.30" routeLength="412.45" waitingTime="4.30" waitingCount="1" stopTime="0.00" timeLoss="-4297.92" rerouteNo="0" devices="tripinfo_L_59" vType="car7@L_59" speedFactor="0.97" vaporized=""/>
    <tripinfo id="R_66" depart="84.00" departLane="3_2" departPos="7.10" departSpeed="11.18" departDelay="0.00" arrival="123.40" arrivalLane="-2_0" arrivalPos="200.00" arrivalSpeed="11.18" duration="39.40" routeLength="398.06" waitingTime="2.80" waitingCount="1" stopTime="0.00" timeLoss="-4298.29" rerouteNo="0" devices="tripinfo_R_66" vType="car7@R_66" speedFactor="0.91" vaporized=""/>
    <tripinfo id="L_60" depart="80.00" departLane="4_0" departPos="6.10" departSpeed="11.18" departDelay="0.00" arrival="124.30" arrivalLane="-1_2" arrivalPos="200.00" arrivalSpeed="11.18" duration="44.30" routeLength="413.45" waitingTime="4.50" waitingCount="2" stopTime="0.00" timeLoss="-4831.22" rerouteNo="0" devices="tripinfo_L_60" vType="car6@L_60" speedFactor="1.08" vaporized=""/>
    <tripinfo id="L_61" depart="81.00" departLane="3_0" departPos="8.10" departSpeed="11.18" departDelay="0.00" arrival="124.70" arrivalLane="-4_2" arrivalPos="200.00" arrivalSpeed="11.18" duration="43.70" routeLength="411.45" waitingTime="5.80" waitingCount="1" stopTime="0.00" timeLoss="-4407.73" rerouteNo="0" devices="tripinfo_L_61" vType="car8@L_61" speedFactor="1.12" vaporized=""/>
    <tripinfo id="R_68" depart="86.00" departLane="2_2" departPos="9.10" departSpeed="11.18" departDelay="0.00" arrival="125.80" arrivalLane="-1_0" arrivalPos="200.00" arrivalSpeed="11.18" duration="39.80" routeLength="396.06" waitingTime="3.30" waitingCount="1" stopTime="0.00" timeLoss="-4529.05" rerouteNo="0" devices="tripinfo_R_68" vType="car9@R_68" speedFactor="1.04" vaporized=""/>
    <tripinfo id="L_63" depart="83.00" departLane="2_1" departPos="8.10" departSpeed="11.18" departDelay="0.00" arrival="126.50" arrivalLane="-3_2" arrivalPos="200.00" arrivalSpeed="11.18" duration="43.50" routeLength="411.45" waitingTime="5.60" waitingCount="1" stopTime="0.00" timeLoss="-4407.90" rerouteNo="0" devices="tripinfo_L_63" vType="car8@L_63" speedFactor="0.99" vaporized=""/>
    <tripinfo id="R_72" depart="92.00" departLane="4_1" departPos="9.10" departSpeed="11.18" departDelay="0.00" arrival="127.50" arrivalLane="-3_0" arrivalPos="200.00" arrivalSpeed="11.18" duration="35.50" routeLength="396.06" waitingTime="0.00" waitingCount="0" stopTime="0.00" timeLoss="-2.76" rerouteNo="0" devices="tripinfo_R_72" vType="car9@R_72" speedFactor="0.94" vaporized=""/>
    <tripinfo id="L_64" depart="83.00" departLane="4_0" departPos="5.10" departSpeed="11.18" departDelay="0.00" arrival="130.70" arrivalLane="-1_2" arrivalPos="200.00" arrivalSpeed="11.18" duration="47.70" routeLength="414.45" waitingTime="7.30" waitingCount="3" stopTime="0.00" timeLoss="-4802.25" rerouteNo="0" devices="tripinfo_L_64" vType="car5@L_64" speedFactor="0.94" vaporized=""/>
    <tripinfo id="R_74" depart="93.00" departLane="3_1" departPos="6.10" departSpeed="11.18" departDelay="0.00" arrival="131.20" arrivalLane="-2_0" arrivalPos="200.00" arrivalSpeed="11.18" duration="38.20" routeLength="399.06" waitingTime="1.50" waitingCount="1" stopTime="0.00" timeLoss="-4182.74" rerouteNo="0" devices="tripinfo_R_74" vType="car6@R_74" speedFactor="0.96" vaporized=""/>
    <tripinfo id="S_62" depart="83.00" departLane="1_1" departPos="8.10" departSpeed="11.18" departDelay="0.00" arrival="131.90" arrivalLane="-3_1" arrivalPos="200.00" arrivalSpeed="11.18" duration="48.90" routeLength="414.30" waitingTime="10.90" waitingCount="1" stopTime="0.00" timeLoss="-4405.61" rerouteNo="0" devices="tripinfo_S_62" vType="car8@S_62" speedFactor="1.02" vaporized=""/>
    <tripinfo id="R_70" depart="90.00" departLane="1_0" departPos="5.10" departSpeed="11.18" departDelay="0.00" arrival="131.90" arrivalLane="-4_0" arrivalPos="200.00" arrivalSpeed="11.18" duration="41.90" routeLength="400.06" waitingTime="5.10" waitingCount="1" stopTime="0.00" timeLoss="-4061.30" rerouteNo="0" devices="tripinfo_R_70" vType="car5@R_70" speedFactor="1.02" vaporized=""/>
    <tripinfo id="S_65" depart="84.00" departLane="1_2" departPos="6.10" departSpeed="11.18" departDelay="0.00" arrival="133.20" arrivalLane="-3_1" arrivalPos="200.00" arrivalSpeed="11.18" duration="49.20" routeLength="416.30" waitingTime="7.40" waitingCount="1" stopTime="0.00" timeLoss="6.48" rerouteNo="0" devices="tripinfo_S_65" vType="car6@S_65" speedFactor="0.88" vaporized=""/>
    <tripinfo id="S_73" depart="93.00" departLane="2_0" departPos="8.10" departSpeed="11.18" departDelay="0.00" arrival="134.00" arrivalLane="-4_1" arrivalPos="200.00" arrivalSpeed="11.18" duration="41.00" routeLength="414.30" waitingTime="3.00" waitingCount="1" stopTime="0.00" timeLoss="-4405.61" rerouteNo="0" devices="tripinfo_S_73" vType="car8@S_73" speedFactor="1.06" vaporized=""/>
    <tripinfo id="R_83" depart="98.00" departLane="3_0" departPos="7.10" departSpeed="11.18" departDelay="0.00" arrival="136.60" arrivalLane="-2_0" arrivalPos="200.00" arrivalSpeed="11.18" duration="38.60" routeLength="398.06" waitingTime="2.00" waitingCount="1" stopTime="0.00" timeLoss="-4298.22" rerouteNo="0" devices="tripinfo_R_83" vType="car7@R_83" speedFactor="0.97" vaporized=""/>
    <tripinfo id="L_78" depart="95.00" departLane="2_1" departPos="6.10" departSpeed="11.18" departDelay="0.00" arrival="137.90" arrivalLane="-3_2" arrivalPos="200.00" arrivalSpeed="11.18" duration="42.90" routeLength="413.45" waitingTime="4.80" waitingCount="1" stopTime="0.00" timeLoss="-4182.35" rerouteNo="0" devices="tripinfo_L_78" vType="car6@L_78" speedFactor="1.01" vaporized=""/>