<?xml version="1.0" encoding="UTF-8"?>

<!-- generated on 04/17/21 23:58:07 by Eclipse SUMO sumo Version 1.8.0
<configuration xmlns:xsi="http://www.w3.org/2001/XMLSchema-instance" xsi:noNamespaceSchemaLocation="http://sumo.dlr.de/xsd/sumoConfiguration.xsd">

    <input>
        <net-file value="data/lane3_roundabout.net.xml"/>
        <route-files value="data/icacc+.rou.xml"/>
        <additional-files value="data/icacc+.det.xml"/>
    </input>

    <output>
        <tripinfo-output value="tripinfo.xml"/>
    </output>

    <time>
        <begin value="0"/>
        <step-length value="0.05"/>
    </time>

    <processing>
        <collision.mingap-factor value="0"/>
        <time-to-teleport value="-1"/>
        <lanechange.duration value="0.5"/>
    </processing>

    <report>
        <verbose value="true"/>
        <no-step-log value="true"/>
    </report>

    <traci_server>
        <remote-port value="13809"/>
    </traci_server>

    <gui_only>
        <start value="true"/>
        <tracker-interval value="0.05"/>
    </gui_only>

</configuration>
-->

<tripinfos xmlns:xsi="http://www.w3.org/2001/XMLSchema-instance" xsi:noNamespaceSchemaLocation="http://sumo.dlr.de/xsd/tripinfo_file.xsd">
    <tripinfo id="S_0" depart="0.00" departLane="4_2" departPos="5.10" departSpeed="11.18" departDelay="0.00" arrival="43.20" arrivalLane="-2_0" arrivalPos="200.00" arrivalSpeed="11.18" duration="43.20" routeLength="480.11" waitingTime="0.00" waitingCount="0" stopTime="0.00" timeLoss="0.01" rerouteNo="0" devices="tripinfo_S_0" vType="car" speedFactor="1.06" vaporized=""/>
    <tripinfo id="L_1" depart="7.70" departLane="4_1" departPos="5.10" departSpeed="11.18" departDelay="0.00" arrival="55.00" arrivalLane="-1_0" arrivalPos="200.00" arrivalSpeed="11.18" duration="47.30" routeLength="523.00" waitingTime="0.00" waitingCount="0" stopTime="0.00" timeLoss="0.02" rerouteNo="0" devices="tripinfo_L_1" vType="car" speedFactor="0.94" vaporized=""/>
</tripinfos>
