<?xml version="1.0" encoding="UTF-8"?>

<!-- generated on 04/28/21 02:05:34 by Eclipse SUMO GUI Version 1.8.0
<configuration xmlns:xsi="http://www.w3.org/2001/XMLSchema-instance" xsi:noNamespaceSchemaLocation="http://sumo.dlr.de/xsd/sumoConfiguration.xsd">

    <input>
        <net-file value="data/lane3.net.xml"/>
        <route-files value="data/icacc+.rou.xml"/>
        <additional-files value="data/icacc+.det.xml"/>
    </input>

    <output>
        <tripinfo-output value="tripinfo.xml"/>
    </output>

    <time>
        <begin value="0"/>
        <step-length value="0.1"/>
    </time>

    <processing>
        <collision.mingap-factor value="0"/>
        <time-to-teleport value="-1"/>
        <lanechange.duration value="0.5"/>
    </processing>

    <report>
        <verbose value="true"/>
        <no-step-log value="true"/>
    </report>

    <traci_server>
        <remote-port value="11369"/>
    </traci_server>

    <gui_only>
        <start value="true"/>
        <tracker-interval value="0.1"/>
    </gui_only>

</configuration>
-->

<detector xmlns:xsi="http://www.w3.org/2001/XMLSchema-instance" xsi:noNamespaceSchemaLocation="http://sumo.dlr.de/xsd/det_e1_file.xsd">
    <interval begin="0.00" end="30.00" id="d1_0" nVehContrib="3" flow="360.00" occupancy="5.96" speed="11.18" harmonicMeanSpeed="11.18" length="6.67" nVehEntered="3"/>
    <interval begin="0.00" end="30.00" id="d1_1" nVehContrib="3" flow="360.00" occupancy="6.86" speed="11.18" harmonicMeanSpeed="11.18" length="7.67" nVehEntered="3"/>
    <interval begin="0.00" end="30.00" id="d1_2" nVehContrib="6" flow="720.00" occupancy="16.29" speed="10.25" harmonicMeanSpeed="9.95" length="8.00" nVehEntered="6"/>
    <interval begin="0.00" end="30.00" id="d2_0" nVehContrib="4" flow="480.00" occupancy="8.35" speed="11.18" harmonicMeanSpeed="11.18" length="7.00" nVehEntered="4"/>
    <interval begin="0.00" end="30.00" id="d2_1" nVehContrib="1" flow="120.00" occupancy="2.09" speed="11.18" harmonicMeanSpeed="11.18" length="7.00" nVehEntered="1"/>
    <interval begin="0.00" end="30.00" id="d2_2" nVehContrib="6" flow="720.00" occupancy="13.09" speed="10.94" harmonicMeanSpeed="10.91" length="7.17" nVehEntered="6"/>
    <interval begin="0.00" end="30.00" id="d3_0" nVehContrib="2" flow="240.00" occupancy="3.58" speed="11.18" harmonicMeanSpeed="11.18" length="6.00" nVehEntered="2"/>
    <interval begin="0.00" end="30.00" id="d3_1" nVehContrib="2" flow="240.00" occupancy="4.77" speed="11.18" harmonicMeanSpeed="11.18" length="8.00" nVehEntered="2"/>
    <interval begin="0.00" end="30.00" id="d3_2" nVehContrib="6" flow="720.00" occupancy="14.82" speed="11.18" harmonicMeanSpeed="11.18" length="7.00" nVehEntered="7"/>
    <interval begin="0.00" end="30.00" id="d4_0" nVehContrib="2" flow="240.00" occupancy="4.17" speed="11.18" harmonicMeanSpeed="11.18" length="7.00" nVehEntered="2"/>
    <interval begin="0.00" end="30.00" id="d4_1" nVehContrib="1" flow="120.00" occupancy="1.79" speed="11.18" harmonicMeanSpeed="11.18" length="6.00" nVehEntered="1"/>
    <interval begin="0.00" end="30.00" id="d4_2" nVehContrib="6" flow="720.00" occupancy="11.33" speed="11.18" harmonicMeanSpeed="11.18" length="6.33" nVehEntered="6"/>
    <interval begin="0.00" end="30.00" id="od1_0" nVehContrib="4" flow="480.00" occupancy="8.35" speed="11.18" harmonicMeanSpeed="11.18" length="7.00" nVehEntered="4"/>
    <interval begin="0.00" end="30.00" id="od1_1" nVehContrib="3" flow="360.00" occupancy="6.86" speed="11.18" harmonicMeanSpeed="11.18" length="7.67" nVehEntered="3"/>
    <interval begin="0.00" end="30.00" id="od1_2" nVehContrib="7" flow="840.00" occupancy="15.84" speed="11.16" harmonicMeanSpeed="11.16" length="7.57" nVehEntered="7"/>
    <interval begin="0.00" end="30.00" id="od2_0" nVehContrib="4" flow="480.00" occupancy="8.35" speed="11.18" harmonicMeanSpeed="11.18" length="7.00" nVehEntered="4"/>
    <interval begin="0.00" end="30.00" id="od2_1" nVehContrib="2" flow="240.00" occupancy="3.58" speed="11.18" harmonicMeanSpeed="11.18" length="6.00" nVehEntered="2"/>
    <interval begin="0.00" end="30.00" id="od2_2" nVehContrib="6" flow="720.00" occupancy="13.54" speed="11.08" harmonicMeanSpeed="11.08" length="7.17" nVehEntered="7"/>
    <interval begin="0.00" end="30.00" id="od3_0" nVehContrib="2" flow="240.00" occupancy="3.58" speed="11.18" harmonicMeanSpeed="11.18" length="6.00" nVehEntered="2"/>
    <interval begin="0.00" end="30.00" id="od3_1" nVehContrib="2" flow="240.00" occupancy="4.77" speed="11.18" harmonicMeanSpeed="11.18" length="8.00" nVehEntered="2"/>
    <interval begin="0.00" end="30.00" id="od3_2" nVehContrib="7" flow="840.00" occupancy="16.16" speed="11.18" harmonicMeanSpeed="11.18" length="7.00" nVehEntered="8"/>
    <interval begin="0.00" end="30.00" id="od4_0" nVehContrib="2" flow="240.00" occupancy="4.17" speed="11.18" harmonicMeanSpeed="11.18" length="7.00" nVehEntered="2"/>
    <interval begin="0.00" end="30.00" id="od4_1" nVehContrib="1" flow="120.00" occupancy="1.79" speed="11.18" harmonicMeanSpeed="11.18" length="6.00" nVehEntered="1"/>
    <interval begin="0.00" end="30.00" id="od4_2" nVehContrib="7" flow="840.00" occupancy="14.01" speed="11.18" harmonicMeanSpeed="11.18" length="6.71" nVehEntered="7"/>
    <interval begin="0.00" end="30.00" id="ood1_0" nVehContrib="5" flow="600.00" occupancy="9.84" speed="11.18" harmonicMeanSpeed="11.18" length="6.60" nVehEntered="5"/>
    <interval begin="0.00" end="30.00" id="ood1_1" nVehContrib="3" flow="360.00" occupancy="6.86" speed="11.18" harmonicMeanSpeed="11.18" length="7.67" nVehEntered="3"/>
    <interval begin="0.00" end="30.00" id="ood1_2" nVehContrib="7" flow="840.00" occupancy="15.80" speed="11.18" harmonicMeanSpeed="11.18" length="7.57" nVehEntered="7"/>
    <interval begin="0.00" end="30.00" id="ood2_0" nVehContrib="5" flow="600.00" occupancy="10.14" speed="11.18" harmonicMeanSpeed="11.18" length="6.80" nVehEntered="5"/>
    <interval begin="0.00" end="30.00" id="ood2_1" nVehContrib="2" flow="240.00" occupancy="3.58" speed="11.18" harmonicMeanSpeed="11.18" length="6.00" nVehEntered="2"/>
    <interval begin="0.00" end="30.00" id="ood2_2" nVehContrib="7" flow="840.00" occupancy="14.31" speed="11.18" harmonicMeanSpeed="11.18" length="6.86" nVehEntered="7"/>
    <interval begin="0.00" end="30.00" id="ood3_0" nVehContrib="2" flow="240.00" occupancy="3.58" speed="11.18" harmonicMeanSpeed="11.18" length="6.00" nVehEntered="2"/>
    <interval begin="0.00" end="30.00" id="ood3_1" nVehContrib="2" flow="240.00" occupancy="4.77" speed="11.18" harmonicMeanSpeed="11.18" length="8.00" nVehEntered="2"/>
    <interval begin="0.00" end="30.00" id="ood3_2" nVehContrib="9" flow="1080.00" occupancy="18.49" speed="11.18" harmonicMeanSpeed="11.18" length="6.89" nVehEntered="9"/>
    <interval begin="0.00" end="30.00" id="ood4_0" nVehContrib="3" flow="360.00" occupancy="6.56" speed="11.18" harmonicMeanSpeed="11.18" length="7.33" nVehEntered="3"/>
    <interval begin="0.00" end="30.00" id="ood4_1" nVehContrib="1" flow="120.00" occupancy="1.79" speed="11.18" harmonicMeanSpeed="11.18" length="6.00" nVehEntered="1"/>
    <interval begin="0.00" end="30.00" id="ood4_2" nVehContrib="7" flow="840.00" occupancy="15.33" speed="11.18" harmonicMeanSpeed="11.18" length="6.71" nVehEntered="8"/>
    <interval begin="0.00" end="30.00" id="oood1_0" nVehContrib="5" flow="600.00" occupancy="12.13" speed="11.18" harmonicMeanSpeed="11.18" length="6.60" nVehEntered="6"/>
    <interval begin="0.00" end="30.00" id="oood1_1" nVehContrib="3" flow="360.00" occupancy="6.86" speed="11.18" harmonicMeanSpeed="11.18" length="7.67" nVehEntered="3"/>
    <interval begin="0.00" end="30.00" id="oood1_2" nVehContrib="7" flow="840.00" occupancy="15.80" speed="11.18" harmonicMeanSpeed="11.18" length="7.57" nVehEntered="7"/>
    <interval begin="0.00" end="30.00" id="oood2_0" nVehContrib="6" flow="720.00" occupancy="12.22" speed="11.18" harmonicMeanSpeed="11.18" length="6.83" nVehEntered="6"/>
    <interval begin="0.00" end="30.00" id="oood2_1" nVehContrib="2" flow="240.00" occupancy="3.58" speed="11.18" harmonicMeanSpeed="11.18" length="6.00" nVehEntered="2"/>
    <interval begin="0.00" end="30.00" id="oood2_2" nVehContrib="8" flow="960.00" occupancy="16.99" speed="11.18" harmonicMeanSpeed="11.18" length="7.13" nVehEntered="8"/>
    <interval begin="0.00" end="30.00" id="oood3_0" nVehContrib="3" flow="360.00" occupancy="5.37" speed="11.18" harmonicMeanSpeed="11.18" length="6.00" nVehEntered="3"/>
    <interval begin="0.00" end="30.00" id="oood3_1" nVehContrib="2" flow="240.00" occupancy="4.77" speed="11.18" harmonicMeanSpeed="11.18" length="8.00" nVehEntered="2"/>
    <interval begin="0.00" end="30.00" id="oood3_2" nVehContrib="9" flow="1080.00" occupancy="18.51" speed="11.17" harmonicMeanSpeed="11.17" length="6.89" nVehEntered="9"/>
    <interval begin="0.00" end="30.00" id="oood4_0" nVehContrib="4" flow="480.00" occupancy="8.65" speed="11.18" harmonicMeanSpeed="11.18" length="7.25" nVehEntered="4"/>
    <interval begin="0.00" end="30.00" id="oood4_1" nVehContrib="1" flow="120.00" occupancy="1.79" speed="11.18" harmonicMeanSpeed="11.18" length="6.00" nVehEntered="1"/>
    <interval begin="0.00" end="30.00" id="oood4_2" nVehContrib="8" flow="960.00" occupancy="17.21" speed="11.15" harmonicMeanSpeed="11.15" length="6.63" nVehEntered="9"/>
    <interval begin="0.00" end="30.00" id="ooood1_0" nVehContrib="10" flow="1200.00" occupancy="6.02" speed="39.89" harmonicMeanSpeed="38.74" length="7.20" nVehEntered="10"/>
    <interval begin="0.00" end="30.00" id="ooood1_1" nVehContrib="5" flow="600.00" occupancy="3.01" speed="41.00" harmonicMeanSpeed="39.35" length="7.40" nVehEntered="5"/>
    <interval begin="0.00" end="30.00" id="ooood1_2" nVehContrib="4" flow="480.00" occupancy="2.41" speed="42.94" harmonicMeanSpeed="40.50" length="7.75" nVehEntered="4"/>
    <interval begin="0.00" end="30.00" id="ooood2_0" nVehContrib="7" flow="840.00" occupancy="4.21" speed="40.36" harmonicMeanSpeed="38.80" length="7.29" nVehEntered="7"/>
    <interval begin="0.00" end="30.00" id="ooood2_1" nVehContrib="8" flow="960.00" occupancy="4.81" speed="40.86" harmonicMeanSpeed="38.88" length="7.38" nVehEntered="8"/>
    <interval begin="0.00" end="30.00" id="ooood2_2" nVehContrib="5" flow="600.00" occupancy="3.01" speed="34.35" harmonicMeanSpeed="33.82" length="6.20" nVehEntered="5"/>
    <interval begin="0.00" end="30.00" id="ooood3_0" nVehContrib="7" flow="840.00" occupancy="4.21" speed="37.99" harmonicMeanSpeed="36.75" length="6.86" nVehEntered="7"/>
    <interval begin="0.00" end="30.00" id="ooood3_1" nVehContrib="4" flow="480.00" occupancy="2.41" speed="41.55" harmonicMeanSpeed="41.06" length="7.50" nVehEntered="4"/>
    <interval begin="0.00" end="30.00" id="ooood3_2" nVehContrib="5" flow="600.00" occupancy="3.01" speed="37.67" harmonicMeanSpeed="36.74" length="6.80" nVehEntered="5"/>
    <interval begin="0.00" end="30.00" id="ooood4_0" nVehContrib="2" flow="240.00" occupancy="1.20" speed="33.24" harmonicMeanSpeed="33.24" length="6.00" nVehEntered="2"/>
    <interval begin="0.00" end="30.00" id="ooood4_1" nVehContrib="7" flow="840.00" occupancy="4.21" speed="37.99" harmonicMeanSpeed="36.75" length="6.86" nVehEntered="7"/>
    <interval begin="0.00" end="30.00" id="ooood4_2" nVehContrib="7" flow="840.00" occupancy="4.21" speed="41.16" harmonicMeanSpeed="39.50" length="7.43" nVehEntered="7"/>
    <interval begin="30.00" end="60.00" id="d1_0" nVehContrib="7" flow="840.00" occupancy="13.22" speed="11.10" harmonicMeanSpeed="11.10" length="6.29" nVehEntered="7"/>
    <interval begin="30.00" end="60.00" id="d1_1" nVehContrib="0" flow="0.00" occupancy="0.00" speed="-1.00" harmonicMeanSpeed="-1.00" length="-1.00" nVehEntered="0"/>
    <interval begin="30.00" end="60.00" id="d1_2" nVehContrib="2" flow="240.00" occupancy="49.10" speed="7.75" harmonicMeanSpeed="7.11" length="6.50" nVehEntered="3"/>
    <interval begin="30.00" end="60.00" id="d2_0" nVehContrib="8" flow="960.00" occupancy="17.59" speed="11.18" harmonicMeanSpeed="11.18" length="7.38" nVehEntered="8"/>
    <interval begin="30.00" end="60.00" id="d2_1" nVehContrib="2" flow="240.00" occupancy="4.17" speed="11.18" harmonicMeanSpeed="11.18" length="7.00" nVehEntered="2"/>
    <interval begin="30.00" end="60.00" id="d2_2" nVehContrib="4" flow="480.00" occupancy="51.83" speed="10.45" harmonicMeanSpeed="10.38" length="7.00" nVehEntered="5"/>
    <interval begin="30.00" end="60.00" id="d3_0" nVehContrib="7" flow="840.00" occupancy="12.53" speed="11.18" harmonicMeanSpeed="11.18" length="6.00" nVehEntered="7"/>
    <interval begin="30.00" end="60.00" id="d3_1" nVehContrib="3" flow="360.00" occupancy="6.56" speed="11.18" harmonicMeanSpeed="11.18" length="7.33" nVehEntered="3"/>
    <interval begin="30.00" end="60.00" id="d3_2" nVehContrib="6" flow="720.00" occupancy="19.58" speed="8.83" harmonicMeanSpeed="6.97" length="7.00" nVehEntered="5"/>
    <interval begin="30.00" end="60.00" id="d4_0" nVehContrib="6" flow="720.00" occupancy="12.52" speed="11.18" harmonicMeanSpeed="11.18" length="7.00" nVehEntered="6"/>
    <interval begin="30.00" end="60.00" id="d4_1" nVehContrib="4" flow="480.00" occupancy="9.24" speed="11.18" harmonicMeanSpeed="11.18" length="7.75" nVehEntered="4"/>
    <interval begin="30.00" end="60.00" id="d4_2" nVehContrib="8" flow="960.00" occupancy="60.66" speed="5.79" harmonicMeanSpeed="3.35" length="7.25" nVehEntered="9"/>
    <interval begin="30.00" end="60.00" id="od1_0" nVehContrib="6" flow="720.00" occupancy="10.73" speed="11.18" harmonicMeanSpeed="11.18" length="6.00" nVehEntered="6"/>
    <interval begin="30.00" end="60.00" id="od1_1" nVehContrib="0" flow="0.00" occupancy="1.78" speed="-1.00" harmonicMeanSpeed="-1.00" length="-1.00" nVehEntered="1"/>
    <interval begin="30.00" end="60.00" id="od1_2" nVehContrib="4" flow="480.00" occupancy="28.41" speed="6.02" harmonicMeanSpeed="3.40" length="6.75" nVehEntered="4"/>
    <interval begin="30.00" end="60.00" id="od2_0" nVehContrib="9" flow="1080.00" occupancy="19.98" speed="11.18" harmonicMeanSpeed="11.18" length="7.44" nVehEntered="9"/>
    <interval begin="30.00" end="60.00" id="od2_1" nVehContrib="1" flow="120.00" occupancy="2.68" speed="11.18" harmonicMeanSpeed="11.18" length="9.00" nVehEntered="1"/>
    <interval begin="30.00" end="60.00" id="od2_2" nVehContrib="6" flow="720.00" occupancy="10.74" speed="11.18" harmonicMeanSpeed="11.18" length="6.33" nVehEntered="5"/>
    <interval begin="30.00" end="60.00" id="od3_0" nVehContrib="7" flow="840.00" occupancy="12.52" speed="11.18" harmonicMeanSpeed="11.18" length="6.00" nVehEntered="7"/>
    <interval begin="30.00" end="60.00" id="od3_1" nVehContrib="4" flow="480.00" occupancy="8.65" speed="11.18" harmonicMeanSpeed="11.18" length="7.25" nVehEntered="4"/>
    <interval begin="30.00" end="60.00" id="od3_2" nVehContrib="5" flow="600.00" occupancy="8.89" speed="11.18" harmonicMeanSpeed="11.18" length="7.00" nVehEntered="4"/>
    <interval begin="30.00" end="60.00" id="od4_0" nVehContrib="7" flow="840.00" occupancy="14.61" speed="11.18" harmonicMeanSpeed="11.18" length="7.00" nVehEntered="7"/>
    <interval begin="30.00" end="60.00" id="od4_1" nVehContrib="4" flow="480.00" occupancy="9.24" speed="11.18" harmonicMeanSpeed="11.18" length="7.75" nVehEntered="4"/>
    <interval begin="30.00" end="60.00" id="od4_2" nVehContrib="9" flow="1080.00" occupancy="69.40" speed="6.20" harmonicMeanSpeed="3.27" length="7.33" nVehEntered="10"/>
    <interval begin="30.00" end="60.00" id="ood1_0" nVehContrib="5" flow="600.00" occupancy="9.24" speed="11.18" harmonicMeanSpeed="11.18" length="6.20" nVehEntered="5"/>
    <interval begin="30.00" end="60.00" id="ood1_1" nVehContrib="1" flow="120.00" occupancy="4.35" speed="11.18" harmonicMeanSpeed="11.18" length="9.00" nVehEntered="2"/>
    <interval begin="30.00" end="60.00" id="ood1_2" nVehContrib="6" flow="720.00" occupancy="27.83" speed="11.13" harmonicMeanSpeed="11.13" length="6.83" nVehEntered="7"/>
    <interval begin="30.00" end="60.00" id="ood2_0" nVehContrib="9" flow="1080.00" occupancy="20.57" speed="11.18" harmonicMeanSpeed="11.18" length="7.67" nVehEntered="9"/>
    <interval begin="30.00" end="60.00" id="ood2_1" nVehContrib="1" flow="120.00" occupancy="2.68" speed="11.18" harmonicMeanSpeed="11.18" length="9.00" nVehEntered="1"/>
    <interval begin="30.00" end="60.00" id="ood2_2" nVehContrib="5" flow="600.00" occupancy="9.84" speed="11.18" harmonicMeanSpeed="11.18" length="6.60" nVehEntered="5"/>
    <interval begin="30.00" end="60.00" id="ood3_0" nVehContrib="7" flow="840.00" occupancy="12.52" speed="11.18" harmonicMeanSpeed="11.18" length="6.00" nVehEntered="7"/>
    <interval begin="30.00" end="60.00" id="ood3_1" nVehContrib="4" flow="480.00" occupancy="8.65" speed="11.18" harmonicMeanSpeed="11.18" length="7.25" nVehEntered="4"/>
    <interval begin="30.00" end="60.00" id="ood3_2" nVehContrib="3" flow="360.00" occupancy="6.56" speed="11.18" harmonicMeanSpeed="11.18" length="7.33" nVehEntered="3"/>
    <interval begin="30.00" end="60.00" id="ood4_0" nVehContrib="7" flow="840.00" occupancy="14.01" speed="11.18" harmonicMeanSpeed="11.18" length="6.71" nVehEntered="7"/>
    <interval begin="30.00" end="60.00" id="ood4_1" nVehContrib="4" flow="480.00" occupancy="9.24" speed="11.18" harmonicMeanSpeed="11.18" length="7.75" nVehEntered="4"/>
    <interval begin="30.00" end="60.00" id="ood4_2" nVehContrib="10" flow="1200.00" occupancy="22.49" speed="10.76" harmonicMeanSpeed="10.67" length="7.30" nVehEntered="10"/>
    <interval begin="30.00" end="60.00" id="oood1_0" nVehContrib="6" flow="720.00" occupancy="8.47" speed="11.16" harmonicMeanSpeed="11.16" length="6.00" nVehEntered="5"/>
    <interval begin="30.00" end="60.00" id="oood1_1" nVehContrib="3" flow="360.00" occupancy="7.16" speed="11.18" harmonicMeanSpeed="11.18" length="8.00" nVehEntered="3"/>
    <interval begin="30.00" end="60.00" id="oood1_2" nVehContrib="8" flow="960.00" occupancy="17.14" speed="11.10" harmonicMeanSpeed="11.10" length="7.13" nVehEntered="8"/>
    <interval begin="30.00" end="60.00" id="oood2_0" nVehContrib="8" flow="960.00" occupancy="20.45" speed="11.18" harmonicMeanSpeed="11.18" length="7.75" nVehEntered="9"/>
    <interval begin="30.00" end="60.00" id="oood2_1" nVehContrib="1" flow="120.00" occupancy="2.68" speed="11.18" harmonicMeanSpeed="11.18" length="9.00" nVehEntered="1"/>
    <interval begin="30.00" end="60.00" id="oood2_2" nVehContrib="5" flow="600.00" occupancy="9.56" speed="11.16" harmonicMeanSpeed="11.16" length="6.40" nVehEntered="5"/>
    <interval begin="30.00" end="60.00" id="oood3_0" nVehContrib="6" flow="720.00" occupancy="10.75" speed="11.18" harmonicMeanSpeed="11.18" length="6.00" nVehEntered="7"/>
    <interval begin="30.00" end="60.00" id="oood3_1" nVehContrib="4" flow="480.00" occupancy="8.70" speed="11.09" harmonicMeanSpeed="11.09" length="7.25" nVehEntered="4"/>
    <interval begin="30.00" end="60.00" id="oood3_2" nVehContrib="4" flow="480.00" occupancy="9.24" speed="11.18" harmonicMeanSpeed="11.18" length="7.75" nVehEntered="4"/>
    <interval begin="30.00" end="60.00" id="oood4_0" nVehContrib="7" flow="840.00" occupancy="14.04" speed="11.16" harmonicMeanSpeed="11.16" length="6.71" nVehEntered="7"/>
    <interval begin="30.00" end="60.00" id="oood4_1" nVehContrib="4" flow="480.00" occupancy="9.27" speed="11.14" harmonicMeanSpeed="11.14" length="7.75" nVehEntered="4"/>
    <interval begin="30.00" end="60.00" id="oood4_2" nVehContrib="10" flow="1200.00" occupancy="20.40" speed="11.18" harmonicMeanSpeed="11.18" length="7.30" nVehEntered="9"/>
    <interval begin="30.00" end="60.00" id="ooood1_0" nVehContrib="5" flow="600.00" occupancy="3.01" speed="36.56" harmonicMeanSpeed="35.18" length="6.60" nVehEntered="5"/>
    <interval begin="30.00" end="60.00" id="ooood1_1" nVehContrib="5" flow="600.00" occupancy="3.01" speed="39.89" harmonicMeanSpeed="38.06" length="7.20" nVehEntered="5"/>
    <interval begin="30.00" end="60.00" id="ooood1_2" nVehContrib="5" flow="600.00" occupancy="3.01" speed="33.24" harmonicMeanSpeed="31.56" length="6.00" nVehEntered="5"/>
    <interval begin="30.00" end="60.00" id="ooood2_0" nVehContrib="6" flow="720.00" occupancy="3.61" speed="38.78" harmonicMeanSpeed="36.37" length="7.00" nVehEntered="6"/>
    <interval begin="30.00" end="60.00" id="ooood2_1" nVehContrib="4" flow="480.00" occupancy="2.41" speed="40.17" harmonicMeanSpeed="39.61" length="7.25" nVehEntered="4"/>
    <interval begin="30.00" end="60.00" id="ooood2_2" nVehContrib="5" flow="600.00" occupancy="3.01" speed="38.78" harmonicMeanSpeed="36.40" length="7.00" nVehEntered="5"/>
    <interval begin="30.00" end="60.00" id="ooood3_0" nVehContrib="7" flow="840.00" occupancy="4.21" speed="32.45" harmonicMeanSpeed="31.66" length="5.86" nVehEntered="7"/>
    <interval begin="30.00" end="60.00" id="ooood3_1" nVehContrib="4" flow="480.00" occupancy="2.41" speed="44.32" harmonicMeanSpeed="43.63" length="8.00" nVehEntered="4"/>
    <interval begin="30.00" end="60.00" id="ooood3_2" nVehContrib="6" flow="720.00" occupancy="3.61" speed="36.93" harmonicMeanSpeed="35.74" length="6.67" nVehEntered="6"/>
    <interval begin="30.00" end="60.00" id="ooood4_0" nVehContrib="4" flow="480.00" occupancy="2.41" speed="33.24" harmonicMeanSpeed="32.77" length="6.00" nVehEntered="4"/>
    <interval begin="30.00" end="60.00" id="ooood4_1" nVehContrib="9" flow="1080.00" occupancy="5.42" speed="37.55" harmonicMeanSpeed="36.70" length="6.78" nVehEntered="9"/>
    <interval begin="30.00" end="60.00" id="ooood4_2" nVehContrib="9" flow="1080.00" occupancy="5.42" speed="43.71" harmonicMeanSpeed="42.81" length="7.89" nVehEntered="9"/>
    <interval begin="60.00" end="90.00" id="d1_0" nVehContrib="4" flow="480.00" occupancy="7.86" speed="11.02" harmonicMeanSpeed="11.01" length="6.50" nVehEntered="4"/>
    <interval begin="60.00" end="90.00" id="d1_1" nVehContrib="6" flow="720.00" occupancy="23.12" speed="8.89" harmonicMeanSpeed="5.27" length="7.17" nVehEntered="6"/>
    <interval begin="60.00" end="90.00" id="d1_2" nVehContrib="4" flow="480.00" occupancy="95.58" speed="3.04" harmonicMeanSpeed="0.76" length="6.00" nVehEntered="4"/>
    <interval begin="60.00" end="90.00" id="d2_0" nVehContrib="7" flow="840.00" occupancy="56.20" speed="9.10" harmonicMeanSpeed="2.64" length="7.57" nVehEntered="7"/>
    <interval begin="60.00" end="90.00" id="d2_1" nVehContrib="4" flow="480.00" occupancy="13.02" speed="9.20" harmonicMeanSpeed="7.91" length="7.25" nVehEntered="4"/>
    <interval begin="60.00" end="90.00" id="d2_2" nVehContrib="3" flow="360.00" occupancy="96.28" speed="0.66" harmonicMeanSpeed="0.43" length="6.00" nVehEntered="3"/>
    <interval begin="60.00" end="90.00" id="d3_0" nVehContrib="7" flow="840.00" occupancy="13.45" speed="11.15" harmonicMeanSpeed="11.15" length="6.43" nVehEntered="7"/>
    <interval begin="60.00" end="90.00" id="d3_1" nVehContrib="1" flow="120.00" occupancy="2.09" speed="11.18" harmonicMeanSpeed="11.18" length="7.00" nVehEntered="1"/>
    <interval begin="60.00" end="90.00" id="d3_2" nVehContrib="2" flow="240.00" occupancy="77.48" speed="2.94" harmonicMeanSpeed="2.55" length="7.50" nVehEntered="3"/>
    <interval begin="60.00" end="90.00" id="d4_0" nVehContrib="4" flow="480.00" occupancy="68.13" speed="10.95" harmonicMeanSpeed="10.95" length="6.75" nVehEntered="5"/>
    <interval begin="60.00" end="90.00" id="d4_1" nVehContrib="0" flow="0.00" occupancy="0.00" speed="-1.00" harmonicMeanSpeed="-1.00" length="-1.00" nVehEntered="0"/>
    <interval begin="60.00" end="90.00" id="d4_2" nVehContrib="8" flow="960.00" occupancy="48.10" speed="6.72" harmonicMeanSpeed="4.12" length="7.75" nVehEntered="7"/>
    <interval begin="60.00" end="90.00" id="od1_0" nVehContrib="5" flow="600.00" occupancy="10.14" speed="11.18" harmonicMeanSpeed="11.18" length="6.80" nVehEntered="5"/>
    <interval begin="60.00" end="90.00" id="od1_1" nVehContrib="6" flow="720.00" occupancy="11.11" speed="11.13" harmonicMeanSpeed="11.12" length="7.17" nVehEntered="5"/>
    <interval begin="60.00" end="90.00" id="od1_2" nVehContrib="4" flow="480.00" occupancy="43.51" speed="7.46" harmonicMeanSpeed="2.41" length="7.50" nVehEntered="4"/>
    <interval begin="60.00" end="90.00" id="od2_0" nVehContrib="6" flow="720.00" occupancy="18.53" speed="9.89" harmonicMeanSpeed="8.24" length="7.50" nVehEntered="6"/>
    <interval begin="60.00" end="90.00" id="od2_1" nVehContrib="4" flow="480.00" occupancy="10.49" speed="11.18" harmonicMeanSpeed="11.18" length="7.25" nVehEntered="5"/>
    <interval begin="60.00" end="90.00" id="od2_2" nVehContrib="4" flow="480.00" occupancy="41.40" speed="7.20" harmonicMeanSpeed="2.69" length="6.75" nVehEntered="5"/>
    <interval begin="60.00" end="90.00" id="od3_0" nVehContrib="8" flow="960.00" occupancy="16.10" speed="11.18" harmonicMeanSpeed="11.18" length="6.75" nVehEntered="8"/>
    <interval begin="60.00" end="90.00" id="od3_1" nVehContrib="0" flow="0.00" occupancy="0.00" speed="-1.00" harmonicMeanSpeed="-1.00" length="-1.00" nVehEntered="0"/>
    <interval begin="60.00" end="90.00" id="od3_2" nVehContrib="4" flow="480.00" occupancy="50.58" speed="10.89" harmonicMeanSpeed="10.87" length="7.75" nVehEntered="5"/>
    <interval begin="60.00" end="90.00" id="od4_0" nVehContrib="6" flow="720.00" occupancy="13.88" speed="10.45" harmonicMeanSpeed="10.09" length="7.00" nVehEntered="6"/>
    <interval begin="60.00" end="90.00" id="od4_1" nVehContrib="0" flow="0.00" occupancy="0.00" speed="-1.00" harmonicMeanSpeed="-1.00" length="-1.00" nVehEntered="0"/>
    <interval begin="60.00" end="90.00" id="od4_2" nVehContrib="6" flow="720.00" occupancy="27.10" speed="7.41" harmonicMeanSpeed="4.83" length="7.50" nVehEntered="5"/>
    <interval begin="60.00" end="90.00" id="ood1_0" nVehContrib="5" flow="600.00" occupancy="10.14" speed="11.18" harmonicMeanSpeed="11.18" length="6.80" nVehEntered="5"/>
    <interval begin="60.00" end="90.00" id="ood1_1" nVehContrib="5" flow="600.00" occupancy="9.84" speed="11.18" harmonicMeanSpeed="11.18" length="6.80" nVehEntered="5"/>
    <interval begin="60.00" end="90.00" id="ood1_2" nVehContrib="5" flow="600.00" occupancy="51.76" speed="3.88" harmonicMeanSpeed="1.56" length="6.60" nVehEntered="4"/>
    <interval begin="60.00" end="90.00" id="ood2_0" nVehContrib="5" flow="600.00" occupancy="11.40" speed="11.18" harmonicMeanSpeed="11.18" length="7.40" nVehEntered="6"/>
    <interval begin="60.00" end="90.00" id="ood2_1" nVehContrib="5" flow="600.00" occupancy="10.73" speed="11.18" harmonicMeanSpeed="11.18" length="7.20" nVehEntered="5"/>
    <interval begin="60.00" end="90.00" id="ood2_2" nVehContrib="7" flow="840.00" occupancy="23.69" speed="9.76" harmonicMeanSpeed="9.27" length="6.57" nVehEntered="8"/>
    <interval begin="60.00" end="90.00" id="ood3_0" nVehContrib="9" flow="1080.00" occupancy="17.89" speed="11.18" harmonicMeanSpeed="11.18" length="6.67" nVehEntered="9"/>
    <interval begin="60.00" end="90.00" id="ood3_1" nVehContrib="0" flow="0.00" occupancy="0.00" speed="-1.00" harmonicMeanSpeed="-1.00" length="-1.00" nVehEntered="0"/>
    <interval begin="60.00" end="90.00" id="ood3_2" nVehContrib="7" flow="840.00" occupancy="33.14" speed="11.06" harmonicMeanSpeed="11.06" length="7.14" nVehEntered="8"/>
    <interval begin="60.00" end="90.00" id="ood4_0" nVehContrib="7" flow="840.00" occupancy="17.26" speed="10.72" harmonicMeanSpeed="10.59" length="7.57" nVehEntered="8"/>
    <interval begin="60.00" end="90.00" id="ood4_1" nVehContrib="0" flow="0.00" occupancy="0.00" speed="-1.00" harmonicMeanSpeed="-1.00" length="-1.00" nVehEntered="0"/>
    <interval begin="60.00" end="90.00" id="ood4_2" nVehContrib="5" flow="600.00" occupancy="10.33" speed="11.18" harmonicMeanSpeed="11.18" length="7.60" nVehEntered="4"/>
    <interval begin="60.00" end="90.00" id="oood1_0" nVehContrib="5" flow="600.00" occupancy="11.05" speed="11.17" harmonicMeanSpeed="11.17" length="7.40" nVehEntered="5"/>
    <interval begin="60.00" end="90.00" id="oood1_1" nVehContrib="5" flow="600.00" occupancy="9.24" speed="11.18" harmonicMeanSpeed="11.18" length="6.20" nVehEntered="5"/>
    <interval begin="60.00" end="90.00" id="oood1_2" nVehContrib="3" flow="360.00" occupancy="5.23" speed="10.82" harmonicMeanSpeed="10.80" length="5.67" nVehEntered="3"/>
    <interval begin="60.00" end="90.00" id="oood2_0" nVehContrib="6" flow="720.00" occupancy="10.73" speed="11.05" harmonicMeanSpeed="11.05" length="7.00" nVehEntered="5"/>
    <interval begin="60.00" end="90.00" id="oood2_1" nVehContrib="5" flow="600.00" occupancy="10.75" speed="11.16" harmonicMeanSpeed="11.16" length="7.20" nVehEntered="5"/>
    <interval begin="60.00" end="90.00" id="oood2_2" nVehContrib="8" flow="960.00" occupancy="16.98" speed="11.01" harmonicMeanSpeed="11.01" length="7.00" nVehEntered="8"/>
    <interval begin="60.00" end="90.00" id="oood3_0" nVehContrib="10" flow="1200.00" occupancy="19.96" speed="11.18" harmonicMeanSpeed="11.18" length="6.70" nVehEntered="9"/>
    <interval begin="60.00" end="90.00" id="oood3_1" nVehContrib="0" flow="0.00" occupancy="0.00" speed="-1.00" harmonicMeanSpeed="-1.00" length="-1.00" nVehEntered="0"/>
    <interval begin="60.00" end="90.00" id="oood3_2" nVehContrib="9" flow="1080.00" occupancy="19.67" speed="10.56" harmonicMeanSpeed="10.38" length="6.78" nVehEntered="9"/>
    <interval begin="60.00" end="90.00" id="oood4_0" nVehContrib="7" flow="840.00" occupancy="16.14" speed="11.15" harmonicMeanSpeed="11.15" length="7.71" nVehEntered="7"/>
    <interval begin="60.00" end="90.00" id="oood4_1" nVehContrib="0" flow="0.00" occupancy="0.00" speed="-1.00" harmonicMeanSpeed="-1.00" length="-1.00" nVehEntered="0"/>
    <interval begin="60.00" end="90.00" id="oood4_2" nVehContrib="5" flow="600.00" occupancy="11.63" speed="11.18" harmonicMeanSpeed="11.18" length="7.80" nVehEntered="5"/>