<?xml version="1.0" encoding="UTF-8"?>

<!-- generated on 03/25/20 23:11:31 by Eclipse SUMO GUI Version 1.3.1
<configuration xmlns:xsi="http://www.w3.org/2001/XMLSchema-instance" xsi:noNamespaceSchemaLocation="http://sumo.dlr.de/xsd/sumoConfiguration.xsd">

    <input>
        <net-file value="data/lane3.net.xml"/>
        <route-files value="data/icacc+.rou.xml"/>
        <additional-files value="data/icacc+.det.xml"/>
    </input>

    <output>
        <tripinfo-output value="tripinfo.xml"/>
    </output>

    <time>
        <begin value="0"/>
        <step-length value="0.1"/>
    </time>

    <processing>
        <collision.mingap-factor value="0"/>
    </processing>

    <report>
        <verbose value="true"/>
        <no-step-log value="true"/>
    </report>

    <traci_server>
        <remote-port value="6547"/>
    </traci_server>

    <gui_only>
        <start value="true"/>
        <tracker-interval value="0.1"/>
    </gui_only>

</configuration>
-->

<detector xmlns:xsi="http://www.w3.org/2001/XMLSchema-instance" xsi:noNamespaceSchemaLocation="http://sumo.dlr.de/xsd/det_e1_file.xsd">
    <interval begin="0.00" end="30.00" id="d1_0" nVehContrib="0" flow="0.00" occupancy="0.66" speed="-1.00" harmonicMeanSpeed="-1.00" length="-1.00" nVehEntered="1"/>
    <interval begin="0.00" end="30.00" id="d1_1" nVehContrib="3" flow="360.00" occupancy="6.86" speed="11.18" harmonicMeanSpeed="11.18" length="7.67" nVehEntered="3"/>
    <interval begin="0.00" end="30.00" id="d1_2" nVehContrib="1" flow="120.00" occupancy="2.39" speed="11.18" harmonicMeanSpeed="11.18" length="8.00" nVehEntered="1"/>
    <interval begin="0.00" end="30.00" id="d2_0" nVehContrib="4" flow="480.00" occupancy="9.24" speed="11.18" harmonicMeanSpeed="11.18" length="7.75" nVehEntered="4"/>
    <interval begin="0.00" end="30.00" id="d2_1" nVehContrib="2" flow="240.00" occupancy="4.77" speed="11.18" harmonicMeanSpeed="11.18" length="8.00" nVehEntered="2"/>
    <interval begin="0.00" end="30.00" id="d2_2" nVehContrib="4" flow="480.00" occupancy="7.45" speed="11.18" harmonicMeanSpeed="11.18" length="6.25" nVehEntered="4"/>
    <interval begin="0.00" end="30.00" id="d3_0" nVehContrib="3" flow="360.00" occupancy="6.86" speed="11.18" harmonicMeanSpeed="11.18" length="7.67" nVehEntered="3"/>
    <interval begin="0.00" end="30.00" id="d3_1" nVehContrib="0" flow="0.00" occupancy="0.00" speed="-1.00" harmonicMeanSpeed="-1.00" length="-1.00" nVehEntered="0"/>
    <interval begin="0.00" end="30.00" id="d3_2" nVehContrib="6" flow="720.00" occupancy="16.96" speed="9.62" harmonicMeanSpeed="9.02" length="7.67" nVehEntered="6"/>
    <interval begin="0.00" end="30.00" id="d4_0" nVehContrib="1" flow="120.00" occupancy="2.68" speed="11.18" harmonicMeanSpeed="11.18" length="9.00" nVehEntered="1"/>
    <interval begin="0.00" end="30.00" id="d4_1" nVehContrib="1" flow="120.00" occupancy="2.09" speed="11.18" harmonicMeanSpeed="11.18" length="7.00" nVehEntered="1"/>
    <interval begin="0.00" end="30.00" id="d4_2" nVehContrib="3" flow="360.00" occupancy="6.26" speed="11.18" harmonicMeanSpeed="11.18" length="7.00" nVehEntered="3"/>
    <interval begin="0.00" end="30.00" id="od1_0" nVehContrib="1" flow="120.00" occupancy="3.60" speed="11.18" harmonicMeanSpeed="11.18" length="8.00" nVehEntered="2"/>
    <interval begin="0.00" end="30.00" id="od1_1" nVehContrib="3" flow="360.00" occupancy="6.86" speed="11.18" harmonicMeanSpeed="11.18" length="7.67" nVehEntered="3"/>
    <interval begin="0.00" end="30.00" id="od1_2" nVehContrib="1" flow="120.00" occupancy="2.39" speed="11.18" harmonicMeanSpeed="11.18" length="8.00" nVehEntered="1"/>
    <interval begin="0.00" end="30.00" id="od2_0" nVehContrib="4" flow="480.00" occupancy="9.24" speed="11.18" harmonicMeanSpeed="11.18" length="7.75" nVehEntered="4"/>
    <interval begin="0.00" end="30.00" id="od2_1" nVehContrib="3" flow="360.00" occupancy="7.16" speed="11.18" harmonicMeanSpeed="11.18" length="8.00" nVehEntered="3"/>
    <interval begin="0.00" end="30.00" id="od2_2" nVehContrib="5" flow="600.00" occupancy="9.24" speed="11.18" harmonicMeanSpeed="11.18" length="6.20" nVehEntered="5"/>
    <interval begin="0.00" end="30.00" id="od3_0" nVehContrib="4" flow="480.00" occupancy="9.24" speed="11.18" harmonicMeanSpeed="11.18" length="7.75" nVehEntered="4"/>
    <interval begin="0.00" end="30.00" id="od3_1" nVehContrib="1" flow="120.00" occupancy="1.49" speed="11.18" harmonicMeanSpeed="11.18" length="5.00" nVehEntered="1"/>
    <interval begin="0.00" end="30.00" id="od3_2" nVehContrib="6" flow="720.00" occupancy="13.71" speed="11.18" harmonicMeanSpeed="11.18" length="7.67" nVehEntered="6"/>
    <interval begin="0.00" end="30.00" id="od4_0" nVehContrib="1" flow="120.00" occupancy="2.68" speed="11.18" harmonicMeanSpeed="11.18" length="9.00" nVehEntered="1"/>
    <interval begin="0.00" end="30.00" id="od4_1" nVehContrib="1" flow="120.00" occupancy="2.09" speed="11.18" harmonicMeanSpeed="11.18" length="7.00" nVehEntered="1"/>
    <interval begin="0.00" end="30.00" id="od4_2" nVehContrib="4" flow="480.00" occupancy="7.75" speed="11.18" harmonicMeanSpeed="11.18" length="6.50" nVehEntered="4"/>
    <interval begin="0.00" end="30.00" id="ood1_0" nVehContrib="2" flow="240.00" occupancy="4.77" speed="11.18" harmonicMeanSpeed="11.18" length="8.00" nVehEntered="2"/>
    <interval begin="0.00" end="30.00" id="ood1_1" nVehContrib="3" flow="360.00" occupancy="6.86" speed="11.18" harmonicMeanSpeed="11.18" length="7.67" nVehEntered="3"/>
    <interval begin="0.00" end="30.00" id="ood1_2" nVehContrib="1" flow="120.00" occupancy="4.02" speed="11.18" harmonicMeanSpeed="11.18" length="8.00" nVehEntered="2"/>
    <interval begin="0.00" end="30.00" id="ood2_0" nVehContrib="4" flow="480.00" occupancy="9.24" speed="11.18" harmonicMeanSpeed="11.18" length="7.75" nVehEntered="4"/>
    <interval begin="0.00" end="30.00" id="ood2_1" nVehContrib="4" flow="480.00" occupancy="9.24" speed="11.18" harmonicMeanSpeed="11.18" length="7.75" nVehEntered="4"/>
    <interval begin="0.00" end="30.00" id="ood2_2" nVehContrib="5" flow="600.00" occupancy="9.24" speed="11.18" harmonicMeanSpeed="11.18" length="6.20" nVehEntered="5"/>
    <interval begin="0.00" end="30.00" id="ood3_0" nVehContrib="4" flow="480.00" occupancy="9.24" speed="11.18" harmonicMeanSpeed="11.18" length="7.75" nVehEntered="4"/>
    <interval begin="0.00" end="30.00" id="ood3_1" nVehContrib="1" flow="120.00" occupancy="1.49" speed="11.18" harmonicMeanSpeed="11.18" length="5.00" nVehEntered="1"/>
    <interval begin="0.00" end="30.00" id="ood3_2" nVehContrib="6" flow="720.00" occupancy="13.71" speed="11.18" harmonicMeanSpeed="11.18" length="7.67" nVehEntered="6"/>
    <interval begin="0.00" end="30.00" id="ood4_0" nVehContrib="1" flow="120.00" occupancy="2.68" speed="11.18" harmonicMeanSpeed="11.18" length="9.00" nVehEntered="1"/>
    <interval begin="0.00" end="30.00" id="ood4_1" nVehContrib="1" flow="120.00" occupancy="2.54" speed="11.18" harmonicMeanSpeed="11.18" length="7.00" nVehEntered="2"/>
    <interval begin="0.00" end="30.00" id="ood4_2" nVehContrib="5" flow="600.00" occupancy="10.44" speed="11.18" harmonicMeanSpeed="11.18" length="7.00" nVehEntered="5"/>
    <interval begin="0.00" end="30.00" id="oood1_0" nVehContrib="2" flow="240.00" occupancy="4.77" speed="11.18" harmonicMeanSpeed="11.18" length="8.00" nVehEntered="2"/>
    <interval begin="0.00" end="30.00" id="oood1_1" nVehContrib="4" flow="480.00" occupancy="8.65" speed="11.17" harmonicMeanSpeed="11.17" length="7.25" nVehEntered="4"/>
    <interval begin="0.00" end="30.00" id="oood1_2" nVehContrib="2" flow="240.00" occupancy="4.17" speed="11.18" harmonicMeanSpeed="11.18" length="7.00" nVehEntered="2"/>
    <interval begin="0.00" end="30.00" id="oood2_0" nVehContrib="4" flow="480.00" occupancy="9.27" speed="11.15" harmonicMeanSpeed="11.15" length="7.75" nVehEntered="4"/>
    <interval begin="0.00" end="30.00" id="oood2_1" nVehContrib="5" flow="600.00" occupancy="11.95" speed="11.15" harmonicMeanSpeed="11.15" length="8.00" nVehEntered="5"/>
    <interval begin="0.00" end="30.00" id="oood2_2" nVehContrib="5" flow="600.00" occupancy="9.26" speed="11.15" harmonicMeanSpeed="11.15" length="6.20" nVehEntered="5"/>
    <interval begin="0.00" end="30.00" id="oood3_0" nVehContrib="4" flow="480.00" occupancy="9.26" speed="11.16" harmonicMeanSpeed="11.16" length="7.75" nVehEntered="4"/>
    <interval begin="0.00" end="30.00" id="oood3_1" nVehContrib="1" flow="120.00" occupancy="1.49" speed="11.18" harmonicMeanSpeed="11.18" length="5.00" nVehEntered="1"/>
    <interval begin="0.00" end="30.00" id="oood3_2" nVehContrib="7" flow="840.00" occupancy="15.84" speed="11.15" harmonicMeanSpeed="11.15" length="7.57" nVehEntered="7"/>
    <interval begin="0.00" end="30.00" id="oood4_0" nVehContrib="1" flow="120.00" occupancy="2.68" speed="11.18" harmonicMeanSpeed="11.18" length="9.00" nVehEntered="1"/>
    <interval begin="0.00" end="30.00" id="oood4_1" nVehContrib="2" flow="240.00" occupancy="4.77" speed="11.18" harmonicMeanSpeed="11.18" length="8.00" nVehEntered="2"/>
    <interval begin="0.00" end="30.00" id="oood4_2" nVehContrib="5" flow="600.00" occupancy="10.46" speed="11.16" harmonicMeanSpeed="11.16" length="7.00" nVehEntered="5"/>
    <interval begin="0.00" end="30.00" id="ooood1_0" nVehContrib="4" flow="480.00" occupancy="2.53" speed="40.79" harmonicMeanSpeed="40.34" length="7.75" nVehEntered="6"/>
    <interval begin="0.00" end="30.00" id="ooood1_1" nVehContrib="1" flow="120.00" occupancy="2.36" speed="8.48" harmonicMeanSpeed="8.48" length="6.00" nVehEntered="3"/>
    <interval begin="0.00" end="30.00" id="ooood1_2" nVehContrib="6" flow="720.00" occupancy="8.87" speed="24.01" harmonicMeanSpeed="14.40" length="6.83" nVehEntered="6"/>
    <interval begin="0.00" end="30.00" id="ooood2_0" nVehContrib="3" flow="360.00" occupancy="4.99" speed="17.97" harmonicMeanSpeed="17.51" length="8.67" nVehEntered="9"/>
    <interval begin="0.00" end="30.00" id="ooood2_1" nVehContrib="11" flow="1320.00" occupancy="15.85" speed="23.35" harmonicMeanSpeed="16.92" length="7.27" nVehEntered="17"/>
    <interval begin="0.00" end="30.00" id="ooood2_2" nVehContrib="3" flow="360.00" occupancy="6.01" speed="9.44" harmonicMeanSpeed="9.36" length="5.67" nVehEntered="8"/>
    <interval begin="0.00" end="30.00" id="ooood3_0" nVehContrib="1" flow="120.00" occupancy="2.36" speed="11.31" harmonicMeanSpeed="11.31" length="8.00" nVehEntered="5"/>
    <interval begin="0.00" end="30.00" id="ooood3_1" nVehContrib="10" flow="1200.00" occupancy="16.08" speed="29.90" harmonicMeanSpeed="18.50" length="7.30" nVehEntered="14"/>
    <interval begin="0.00" end="30.00" id="ooood3_2" nVehContrib="6" flow="720.00" occupancy="23.87" speed="10.18" harmonicMeanSpeed="4.88" length="6.50" nVehEntered="6"/>
    <interval begin="0.00" end="30.00" id="ooood4_0" nVehContrib="5" flow="600.00" occupancy="4.89" speed="34.12" harmonicMeanSpeed="27.60" length="7.80" nVehEntered="8"/>
    <interval begin="0.00" end="30.00" id="ooood4_1" nVehContrib="3" flow="360.00" occupancy="4.66" speed="20.50" harmonicMeanSpeed="13.92" length="7.00" nVehEntered="5"/>
    <interval begin="0.00" end="30.00" id="ooood4_2" nVehContrib="5" flow="600.00" occupancy="11.34" speed="11.69" harmonicMeanSpeed="11.22" length="7.80" nVehEntered="7"/>
    <interval begin="30.00" end="60.00" id="d1_0" nVehContrib="3" flow="360.00" occupancy="5.90" speed="11.18" harmonicMeanSpeed="11.18" length="7.33" nVehEntered="2"/>
    <interval begin="30.00" end="60.00" id="d1_1" nVehContrib="4" flow="480.00" occupancy="8.65" speed="11.18" harmonicMeanSpeed="11.18" length="7.25" nVehEntered="4"/>
    <interval begin="30.00" end="60.00" id="d1_2" nVehContrib="5" flow="600.00" occupancy="9.39" speed="11.01" harmonicMeanSpeed="11.00" length="6.20" nVehEntered="5"/>
    <interval begin="30.00" end="60.00" id="d2_0" nVehContrib="1" flow="120.00" occupancy="2.39" speed="11.18" harmonicMeanSpeed="11.18" length="8.00" nVehEntered="1"/>
    <interval begin="30.00" end="60.00" id="d2_1" nVehContrib="7" flow="840.00" occupancy="16.10" speed="11.18" harmonicMeanSpeed="11.18" length="7.71" nVehEntered="7"/>
    <interval begin="30.00" end="60.00" id="d2_2" nVehContrib="7" flow="840.00" occupancy="11.70" speed="11.13" harmonicMeanSpeed="11.13" length="5.57" nVehEntered="7"/>
    <interval begin="30.00" end="60.00" id="d3_0" nVehContrib="3" flow="360.00" occupancy="5.96" speed="11.18" harmonicMeanSpeed="11.18" length="6.67" nVehEntered="3"/>
    <interval begin="30.00" end="60.00" id="d3_1" nVehContrib="5" flow="600.00" occupancy="9.01" speed="10.73" harmonicMeanSpeed="10.68" length="5.80" nVehEntered="5"/>
    <interval begin="30.00" end="60.00" id="d3_2" nVehContrib="8" flow="960.00" occupancy="15.24" speed="11.16" harmonicMeanSpeed="11.16" length="6.38" nVehEntered="8"/>
    <interval begin="30.00" end="60.00" id="d4_0" nVehContrib="3" flow="360.00" occupancy="7.45" speed="11.18" harmonicMeanSpeed="11.18" length="8.33" nVehEntered="3"/>
    <interval begin="30.00" end="60.00" id="d4_1" nVehContrib="4" flow="480.00" occupancy="8.05" speed="11.18" harmonicMeanSpeed="11.18" length="6.75" nVehEntered="4"/>
    <interval begin="30.00" end="60.00" id="d4_2" nVehContrib="10" flow="1200.00" occupancy="20.91" speed="11.16" harmonicMeanSpeed="11.16" length="7.00" nVehEntered="10"/>
    <interval begin="30.00" end="60.00" id="od1_0" nVehContrib="2" flow="240.00" occupancy="2.95" speed="11.18" harmonicMeanSpeed="11.18" length="7.00" nVehEntered="1"/>
    <interval begin="30.00" end="60.00" id="od1_1" nVehContrib="4" flow="480.00" occupancy="8.65" speed="11.18" harmonicMeanSpeed="11.18" length="7.25" nVehEntered="4"/>
    <interval begin="30.00" end="60.00" id="od1_2" nVehContrib="6" flow="720.00" occupancy="11.93" speed="11.18" harmonicMeanSpeed="11.18" length="6.67" nVehEntered="6"/>
    <interval begin="30.00" end="60.00" id="od2_0" nVehContrib="1" flow="120.00" occupancy="2.39" speed="11.18" harmonicMeanSpeed="11.18" length="8.00" nVehEntered="1"/>
    <interval begin="30.00" end="60.00" id="od2_1" nVehContrib="7" flow="840.00" occupancy="15.21" speed="11.18" harmonicMeanSpeed="11.18" length="7.29" nVehEntered="7"/>
    <interval begin="30.00" end="60.00" id="od2_2" nVehContrib="6" flow="720.00" occupancy="9.84" speed="11.18" harmonicMeanSpeed="11.18" length="5.50" nVehEntered="6"/>
    <interval begin="30.00" end="60.00" id="od3_0" nVehContrib="2" flow="240.00" occupancy="3.98" speed="11.18" harmonicMeanSpeed="11.18" length="6.00" nVehEntered="3"/>
    <interval begin="30.00" end="60.00" id="od3_1" nVehContrib="4" flow="480.00" occupancy="7.16" speed="11.18" harmonicMeanSpeed="11.18" length="6.00" nVehEntered="4"/>
    <interval begin="30.00" end="60.00" id="od3_2" nVehContrib="8" flow="960.00" occupancy="15.21" speed="11.18" harmonicMeanSpeed="11.18" length="6.38" nVehEntered="8"/>
    <interval begin="30.00" end="60.00" id="od4_0" nVehContrib="3" flow="360.00" occupancy="7.45" speed="11.18" harmonicMeanSpeed="11.18" length="8.33" nVehEntered="3"/>
    <interval begin="30.00" end="60.00" id="od4_1" nVehContrib="4" flow="480.00" occupancy="8.05" speed="11.18" harmonicMeanSpeed="11.18" length="6.75" nVehEntered="4"/>
    <interval begin="30.00" end="60.00" id="od4_2" nVehContrib="9" flow="1080.00" occupancy="19.42" speed="11.15" harmonicMeanSpeed="11.15" length="7.22" nVehEntered="9"/>
    <interval begin="30.00" end="60.00" id="ood1_0" nVehContrib="1" flow="120.00" occupancy="1.79" speed="11.18" harmonicMeanSpeed="11.18" length="6.00" nVehEntered="1"/>
    <interval begin="30.00" end="60.00" id="ood1_1" nVehContrib="4" flow="480.00" occupancy="8.65" speed="11.18" harmonicMeanSpeed="11.18" length="7.25" nVehEntered="4"/>
    <interval begin="30.00" end="60.00" id="ood1_2" nVehContrib="7" flow="840.00" occupancy="11.78" speed="11.18" harmonicMeanSpeed="11.18" length="6.43" nVehEntered="6"/>
    <interval begin="30.00" end="60.00" id="ood2_0" nVehContrib="1" flow="120.00" occupancy="3.30" speed="11.18" harmonicMeanSpeed="11.18" length="8.00" nVehEntered="2"/>
    <interval begin="30.00" end="60.00" id="ood2_1" nVehContrib="6" flow="720.00" occupancy="13.64" speed="11.18" harmonicMeanSpeed="11.18" length="7.33" nVehEntered="7"/>
    <interval begin="30.00" end="60.00" id="ood2_2" nVehContrib="7" flow="840.00" occupancy="11.63" speed="11.18" harmonicMeanSpeed="11.18" length="5.57" nVehEntered="7"/>
    <interval begin="30.00" end="60.00" id="ood3_0" nVehContrib="3" flow="360.00" occupancy="5.96" speed="11.18" harmonicMeanSpeed="11.18" length="6.67" nVehEntered="3"/>
    <interval begin="30.00" end="60.00" id="ood3_1" nVehContrib="4" flow="480.00" occupancy="7.16" speed="11.18" harmonicMeanSpeed="11.18" length="6.00" nVehEntered="4"/>
    <interval begin="30.00" end="60.00" id="ood3_2" nVehContrib="9" flow="1080.00" occupancy="16.99" speed="11.18" harmonicMeanSpeed="11.18" length="6.33" nVehEntered="9"/>
    <interval begin="30.00" end="60.00" id="ood4_0" nVehContrib="3" flow="360.00" occupancy="7.45" speed="11.18" harmonicMeanSpeed="11.18" length="8.33" nVehEntered="3"/>
    <interval begin="30.00" end="60.00" id="ood4_1" nVehContrib="5" flow="600.00" occupancy="9.69" speed="11.18" harmonicMeanSpeed="11.18" length="6.80" nVehEntered="4"/>
    <interval begin="30.00" end="60.00" id="ood4_2" nVehContrib="9" flow="1080.00" occupancy="18.19" speed="11.18" harmonicMeanSpeed="11.18" length="6.78" nVehEntered="9"/>
    <interval begin="30.00" end="60.00" id="oood1_0" nVehContrib="1" flow="120.00" occupancy="1.79" speed="11.18" harmonicMeanSpeed="11.18" length="6.00" nVehEntered="1"/>
    <interval begin="30.00" end="60.00" id="oood1_1" nVehContrib="3" flow="360.00" occupancy="9.18" speed="11.14" harmonicMeanSpeed="11.14" length="7.67" nVehEntered="4"/>
    <interval begin="30.00" end="60.00" id="oood1_2" nVehContrib="6" flow="720.00" occupancy="11.66" speed="11.15" harmonicMeanSpeed="11.15" length="6.50" nVehEntered="6"/>
    <interval begin="30.00" end="60.00" id="oood2_0" nVehContrib="2" flow="240.00" occupancy="4.19" speed="11.14" harmonicMeanSpeed="11.14" length="7.00" nVehEntered="2"/>
    <interval begin="30.00" end="60.00" id="oood2_1" nVehContrib="6" flow="720.00" occupancy="12.86" speed="11.15" harmonicMeanSpeed="11.15" length="7.17" nVehEntered="6"/>
    <interval begin="30.00" end="60.00" id="oood2_2" nVehContrib="7" flow="840.00" occupancy="13.99" speed="11.12" harmonicMeanSpeed="11.12" length="5.57" nVehEntered="8"/>
    <interval begin="30.00" end="60.00" id="oood3_0" nVehContrib="3" flow="360.00" occupancy="5.98" speed="11.15" harmonicMeanSpeed="11.15" length="6.67" nVehEntered="3"/>
    <interval begin="30.00" end="60.00" id="oood3_1" nVehContrib="4" flow="480.00" occupancy="7.17" speed="11.15" harmonicMeanSpeed="11.15" length="6.00" nVehEntered="4"/>
    <interval begin="30.00" end="60.00" id="oood3_2" nVehContrib="9" flow="1080.00" occupancy="17.07" speed="11.13" harmonicMeanSpeed="11.13" length="6.33" nVehEntered="9"/>
    <interval begin="30.00" end="60.00" id="oood4_0" nVehContrib="3" flow="360.00" occupancy="7.49" speed="11.13" harmonicMeanSpeed="11.13" length="8.33" nVehEntered="3"/>
    <interval begin="30.00" end="60.00" id="oood4_1" nVehContrib="4" flow="480.00" occupancy="7.47" speed="11.15" harmonicMeanSpeed="11.15" length="6.25" nVehEntered="4"/>
    <interval begin="30.00" end="60.00" id="oood4_2" nVehContrib="10" flow="1200.00" occupancy="20.95" speed="11.14" harmonicMeanSpeed="11.14" length="7.00" nVehEntered="10"/>
    <interval begin="30.00" end="60.00" id="ooood1_0" nVehContrib="2" flow="240.00" occupancy="2.71" speed="21.40" harmonicMeanSpeed="16.56" length="6.50" nVehEntered="7"/>
    <interval begin="30.00" end="60.00" id="ooood1_1" nVehContrib="6" flow="720.00" occupancy="12.55" speed="12.34" harmonicMeanSpeed="11.21" length="7.67" nVehEntered="11"/>
    <interval begin="30.00" end="60.00" id="ooood1_2" nVehContrib="6" flow="720.00" occupancy="11.15" speed="12.30" harmonicMeanSpeed="11.83" length="6.83" nVehEntered="10"/>
    <interval begin="30.00" end="60.00" id="ooood2_0" nVehContrib="3" flow="360.00" occupancy="5.02" speed="15.83" harmonicMeanSpeed="13.17" length="6.33" nVehEntered="5"/>
    <interval begin="30.00" end="60.00" id="ooood2_1" nVehContrib="6" flow="720.00" occupancy="13.82" speed="10.20" harmonicMeanSpeed="9.85" length="7.00" nVehEntered="11"/>
    <interval begin="30.00" end="60.00" id="ooood2_2" nVehContrib="7" flow="840.00" occupancy="16.02" speed="9.59" harmonicMeanSpeed="9.00" length="6.57" nVehEntered="10"/>
    <interval begin="30.00" end="60.00" id="ooood3_0" nVehContrib="5" flow="600.00" occupancy="14.06" speed="12.67" harmonicMeanSpeed="8.23" length="6.80" nVehEntered="6"/>
    <interval begin="30.00" end="60.00" id="ooood3_1" nVehContrib="5" flow="600.00" occupancy="24.88" speed="4.98" harmonicMeanSpeed="3.40" length="6.40" nVehEntered="11"/>
    <interval begin="30.00" end="60.00" id="ooood3_2" nVehContrib="6" flow="720.00" occupancy="23.46" speed="8.41" harmonicMeanSpeed="5.82" length="6.17" nVehEntered="9"/>
    <interval begin="30.00" end="60.00" id="ooood4_0" nVehContrib="2" flow="240.00" occupancy="4.15" speed="12.88" harmonicMeanSpeed="12.88" length="8.00" nVehEntered="7"/>
    <interval begin="30.00" end="60.00" id="ooood4_1" nVehContrib="6" flow="720.00" occupancy="17.55" speed="9.57" harmonicMeanSpeed="8.50" length="7.33" nVehEntered="11"/>
    <interval begin="30.00" end="60.00" id="ooood4_2" nVehContrib="7" flow="840.00" occupancy="21.49" speed="7.68" harmonicMeanSpeed="6.92" length="6.14" nVehEntered="8"/>
    <interval begin="60.00" end="90.00" id="d1_0" nVehContrib="3" flow="360.00" occupancy="5.66" speed="11.18" harmonicMeanSpeed="11.18" length="6.33" nVehEntered="3"/>
    <interval begin="60.00" end="90.00" id="d1_1" nVehContrib="3" flow="360.00" occupancy="6.86" speed="11.18" harmonicMeanSpeed="11.18" length="7.67" nVehEntered="3"/>
    <interval begin="60.00" end="90.00" id="d1_2" nVehContrib="8" flow="960.00" occupancy="16.43" speed="11.15" harmonicMeanSpeed="11.15" length="6.88" nVehEntered="8"/>
    <interval begin="60.00" end="90.00" id="d2_0" nVehContrib="2" flow="240.00" occupancy="4.17" speed="11.18" harmonicMeanSpeed="11.18" length="7.00" nVehEntered="2"/>
    <interval begin="60.00" end="90.00" id="d2_1" nVehContrib="7" flow="840.00" occupancy="15.50" speed="11.18" harmonicMeanSpeed="11.18" length="7.43" nVehEntered="7"/>
    <interval begin="60.00" end="90.00" id="d2_2" nVehContrib="5" flow="600.00" occupancy="11.06" speed="11.15" harmonicMeanSpeed="11.15" length="7.40" nVehEntered="5"/>
    <interval begin="60.00" end="90.00" id="d3_0" nVehContrib="5" flow="600.00" occupancy="11.63" speed="11.18" harmonicMeanSpeed="11.18" length="7.80" nVehEntered="5"/>
    <interval begin="60.00" end="90.00" id="d3_1" nVehContrib="1" flow="120.00" occupancy="2.39" speed="11.18" harmonicMeanSpeed="11.18" length="8.00" nVehEntered="1"/>
    <interval begin="60.00" end="90.00" id="d3_2" nVehContrib="10" flow="1200.00" occupancy="21.30" speed="10.97" harmonicMeanSpeed="10.95" length="7.00" nVehEntered="10"/>
    <interval begin="60.00" end="90.00" id="d4_0" nVehContrib="0" flow="0.00" occupancy="0.00" speed="-1.00" harmonicMeanSpeed="-1.00" length="-1.00" nVehEntered="0"/>
    <interval begin="60.00" end="90.00" id="d4_1" nVehContrib="4" flow="480.00" occupancy="8.05" speed="11.18" harmonicMeanSpeed="11.18" length="6.75" nVehEntered="4"/>
    <interval begin="60.00" end="90.00" id="d4_2" nVehContrib="6" flow="720.00" occupancy="13.57" speed="11.07" harmonicMeanSpeed="11.06" length="7.50" nVehEntered="6"/>
    <interval begin="60.00" end="90.00" id="od1_0" nVehContrib="3" flow="360.00" occupancy="5.66" speed="11.18" harmonicMeanSpeed="11.18" length="6.33" nVehEntered="3"/>
    <interval begin="60.00" end="90.00" id="od1_1" nVehContrib="3" flow="360.00" occupancy="6.86" speed="11.18" harmonicMeanSpeed="11.18" length="7.67" nVehEntered="3"/>
    <interval begin="60.00" end="90.00" id="od1_2" nVehContrib="8" flow="960.00" occupancy="15.50" speed="11.18" harmonicMeanSpeed="11.18" length="6.50" nVehEntered="8"/>
    <interval begin="60.00" end="90.00" id="od2_0" nVehContrib="2" flow="240.00" occupancy="4.17" speed="11.18" harmonicMeanSpeed="11.18" length="7.00" nVehEntered="2"/>
    <interval begin="60.00" end="90.00" id="od2_1" nVehContrib="6" flow="720.00" occupancy="14.01" speed="11.18" harmonicMeanSpeed="11.18" length="7.83" nVehEntered="6"/>
    <interval begin="60.00" end="90.00" id="od2_2" nVehContrib="6" flow="720.00" occupancy="13.42" speed="11.18" harmonicMeanSpeed="11.18" length="7.50" nVehEntered="6"/>
    <interval begin="60.00" end="90.00" id="od3_0" nVehContrib="5" flow="600.00" occupancy="11.22" speed="11.18" harmonicMeanSpeed="11.18" length="7.80" nVehEntered="4"/>
    <interval begin="60.00" end="90.00" id="od3_1" nVehContrib="1" flow="120.00" occupancy="2.39" speed="11.18" harmonicMeanSpeed="11.18" length="8.00" nVehEntered="1"/>
    <interval begin="60.00" end="90.00" id="od3_2" nVehContrib="11" flow="1320.00" occupancy="23.30" speed="11.16" harmonicMeanSpeed="11.16" length="7.09" nVehEntered="11"/>
    <interval begin="60.00" end="90.00" id="od4_0" nVehContrib="0" flow="0.00" occupancy="0.00" speed="-1.00" harmonicMeanSpeed="-1.00" length="-1.00" nVehEntered="0"/>
    <interval begin="60.00" end="90.00" id="od4_1" nVehContrib="5" flow="600.00" occupancy="10.73" speed="11.18" harmonicMeanSpeed="11.18" length="7.20" nVehEntered="5"/>
    <interval begin="60.00" end="90.00" id="od4_2" nVehContrib="7" flow="840.00" occupancy="15.80" speed="11.18" harmonicMeanSpeed="11.18" length="7.57" nVehEntered="7"/>
    <interval begin="60.00" end="90.00" id="ood1_0" nVehContrib="3" flow="360.00" occupancy="5.66" speed="11.18" harmonicMeanSpeed="11.18" length="6.33" nVehEntered="3"/>
    <interval begin="60.00" end="90.00" id="ood1_1" nVehContrib="4" flow="480.00" occupancy="9.24" speed="11.18" harmonicMeanSpeed="11.18" length="7.75" nVehEntered="4"/>
    <interval begin="60.00" end="90.00" id="ood1_2" nVehContrib="7" flow="840.00" occupancy="15.20" speed="11.18" harmonicMeanSpeed="11.18" length="6.71" nVehEntered="8"/>
    <interval begin="60.00" end="90.00" id="ood2_0" nVehContrib="2" flow="240.00" occupancy="3.84" speed="11.18" harmonicMeanSpeed="11.18" length="7.00" nVehEntered="2"/>
    <interval begin="60.00" end="90.00" id="ood2_1" nVehContrib="6" flow="720.00" occupancy="13.49" speed="11.18" harmonicMeanSpeed="11.18" length="7.83" nVehEntered="5"/>
    <interval begin="60.00" end="90.00" id="ood2_2" nVehContrib="6" flow="720.00" occupancy="13.19" speed="11.18" harmonicMeanSpeed="11.18" length="7.33" nVehEntered="7"/>
    <interval begin="60.00" end="90.00" id="ood3_0" nVehContrib="4" flow="480.00" occupancy="9.24" speed="11.18" harmonicMeanSpeed="11.18" length="7.75" nVehEntered="4"/>
    <interval begin="60.00" end="90.00" id="ood3_1" nVehContrib="1" flow="120.00" occupancy="4.58" speed="11.18" harmonicMeanSpeed="11.18" length="8.00" nVehEntered="2"/>
    <interval begin="60.00" end="90.00" id="ood3_2" nVehContrib="11" flow="1320.00" occupancy="24.15" speed="11.18" harmonicMeanSpeed="11.18" length="7.36" nVehEntered="11"/>
    <interval begin="60.00" end="90.00" id="ood4_0" nVehContrib="0" flow="0.00" occupancy="0.00" speed="-1.00" harmonicMeanSpeed="-1.00" length="-1.00" nVehEntered="0"/>
    <interval begin="60.00" end="90.00" id="ood4_1" nVehContrib="5" flow="600.00" occupancy="11.33" speed="11.18" harmonicMeanSpeed="11.18" length="7.60" nVehEntered="5"/>
    <interval begin="60.00" end="90.00" id="ood4_2" nVehContrib="6" flow="720.00" occupancy="14.31" speed="11.18" harmonicMeanSpeed="11.18" length="8.00" nVehEntered="6"/>
    <interval begin="60.00" end="90.00" id="oood1_0" nVehContrib="3" flow="360.00" occupancy="5.67" speed="11.17" harmonicMeanSpeed="11.17" length="6.33" nVehEntered="3"/>
    <interval begin="60.00" end="90.00" id="oood1_1" nVehContrib="4" flow="480.00" occupancy="8.03" speed="11.16" harmonicMeanSpeed="11.16" length="7.75" nVehEntered="4"/>
    <interval begin="60.00" end="90.00" id="oood1_2" nVehContrib="8" flow="960.00" occupancy="16.46" speed="11.14" harmonicMeanSpeed="11.14" length="6.88" nVehEntered="8"/>
    <interval begin="60.00" end="90.00" id="oood2_0" nVehContrib="2" flow="240.00" occupancy="4.19" speed="11.14" harmonicMeanSpeed="11.14" length="7.00" nVehEntered="2"/>
    <interval begin="60.00" end="90.00" id="oood2_1" nVehContrib="5" flow="600.00" occupancy="11.66" speed="11.15" harmonicMeanSpeed="11.15" length="7.80" nVehEntered="5"/>
    <interval begin="60.00" end="90.00" id="oood2_2" nVehContrib="7" flow="840.00" occupancy="12.37" speed="11.14" harmonicMeanSpeed="11.14" length="7.00" nVehEntered="6"/>
    <interval begin="60.00" end="90.00" id="oood3_0" nVehContrib="4" flow="480.00" occupancy="9.29" speed="11.12" harmonicMeanSpeed="11.12" length="7.75" nVehEntered="4"/>
    <interval begin="60.00" end="90.00" id="oood3_1" nVehContrib="2" flow="240.00" occupancy="4.78" speed="11.15" harmonicMeanSpeed="11.15" length="8.00" nVehEntered="2"/>
    <interval begin="60.00" end="90.00" id="oood3_2" nVehContrib="11" flow="1320.00" occupancy="23.92" speed="11.15" harmonicMeanSpeed="11.15" length="7.27" nVehEntered="11"/>
    <interval begin="60.00" end="90.00" id="oood4_0" nVehContrib="0" flow="0.00" occupancy="0.00" speed="-1.00" harmonicMeanSpeed="-1.00" length="-1.00" nVehEntered="0"/>
    <interval begin="60.00" end="90.00" id="oood4_1" nVehContrib="6" flow="720.00" occupancy="14.33" speed="11.09" harmonicMeanSpeed="11.09" length="7.67" nVehEntered="7"/>
    <interval begin="60.00" end="90.00" id="oood4_2" nVehContrib="5" flow="600.00" occupancy="12.69" speed="11.15" harmonicMeanSpeed="11.15" length="7.80" nVehEntered="6"/>
    <interval begin="60.00" end="90.00" id="ooood1_0" nVehContrib="2" flow="240.00" occupancy="4.38" speed="9.18" harmonicMeanSpeed="9.12" length="6.00" nVehEntered="7"/>