<?xml version="1.0" encoding="UTF-8"?>

<!-- generated on 04/19/21 02:47:53 by Eclipse SUMO GUI Version 1.8.0
<configuration xmlns:xsi="http://www.w3.org/2001/XMLSchema-instance" xsi:noNamespaceSchemaLocation="http://sumo.dlr.de/xsd/sumoConfiguration.xsd">

    <input>
        <net-file value="data/lane3_roundabout.net.xml"/>
        <route-files value="data/icacc+.rou.xml"/>
        <additional-files value="data/icacc+.det.xml"/>
    </input>

    <output>
        <tripinfo-output value="tripinfo.xml"/>
    </output>

    <time>
        <begin value="0"/>
        <step-length value="0.1"/>
    </time>

    <processing>
        <collision.mingap-factor value="0"/>
        <time-to-teleport value="-1"/>
        <lanechange.duration value="0.5"/>
    </processing>

    <report>
        <verbose value="true"/>
        <no-step-log value="true"/>
    </report>

    <traci_server>
        <remote-port value="5277"/>
    </traci_server>

    <gui_only>
        <start value="true"/>
        <tracker-interval value="0.1"/>
    </gui_only>

</configuration>
-->

<detector xmlns:xsi="http://www.w3.org/2001/XMLSchema-instance" xsi:noNamespaceSchemaLocation="http://sumo.dlr.de/xsd/det_e1_file.xsd">
    <interval begin="0.00" end="30.00" id="d1_0" nVehContrib="6" flow="720.00" occupancy="14.61" speed="11.18" harmonicMeanSpeed="11.18" length="8.17" nVehEntered="6"/>
    <interval begin="0.00" end="30.00" id="d1_1" nVehContrib="1" flow="120.00" occupancy="2.39" speed="11.18" harmonicMeanSpeed="11.18" length="8.00" nVehEntered="1"/>
    <interval begin="0.00" end="30.00" id="d1_2" nVehContrib="6" flow="720.00" occupancy="13.49" speed="11.12" harmonicMeanSpeed="11.11" length="7.50" nVehEntered="6"/>
    <interval begin="0.00" end="30.00" id="d2_0" nVehContrib="5" flow="600.00" occupancy="12.56" speed="11.13" harmonicMeanSpeed="11.13" length="7.20" nVehEntered="6"/>
    <interval begin="0.00" end="30.00" id="d2_1" nVehContrib="1" flow="120.00" occupancy="2.09" speed="11.18" harmonicMeanSpeed="11.18" length="7.00" nVehEntered="1"/>
    <interval begin="0.00" end="30.00" id="d2_2" nVehContrib="5" flow="600.00" occupancy="11.50" speed="11.18" harmonicMeanSpeed="11.18" length="7.40" nVehEntered="6"/>
    <interval begin="0.00" end="30.00" id="d3_0" nVehContrib="6" flow="720.00" occupancy="12.86" speed="10.62" harmonicMeanSpeed="10.49" length="6.83" nVehEntered="6"/>
    <interval begin="0.00" end="30.00" id="d3_1" nVehContrib="1" flow="120.00" occupancy="2.39" speed="11.18" harmonicMeanSpeed="11.18" length="8.00" nVehEntered="1"/>
    <interval begin="0.00" end="30.00" id="d3_2" nVehContrib="2" flow="240.00" occupancy="4.77" speed="11.18" harmonicMeanSpeed="11.18" length="8.00" nVehEntered="2"/>
    <interval begin="0.00" end="30.00" id="d4_0" nVehContrib="6" flow="720.00" occupancy="30.48" speed="10.50" harmonicMeanSpeed="10.36" length="7.17" nVehEntered="7"/>
    <interval begin="0.00" end="30.00" id="d4_1" nVehContrib="0" flow="0.00" occupancy="0.00" speed="-1.00" harmonicMeanSpeed="-1.00" length="-1.00" nVehEntered="0"/>
    <interval begin="0.00" end="30.00" id="d4_2" nVehContrib="5" flow="600.00" occupancy="12.44" speed="10.08" harmonicMeanSpeed="9.82" length="7.40" nVehEntered="5"/>
    <interval begin="0.00" end="30.00" id="od1_0" nVehContrib="7" flow="840.00" occupancy="17.29" speed="11.18" harmonicMeanSpeed="11.18" length="8.29" nVehEntered="7"/>
    <interval begin="0.00" end="30.00" id="od1_1" nVehContrib="1" flow="120.00" occupancy="2.39" speed="11.18" harmonicMeanSpeed="11.18" length="8.00" nVehEntered="1"/>
    <interval begin="0.00" end="30.00" id="od1_2" nVehContrib="7" flow="840.00" occupancy="14.91" speed="11.18" harmonicMeanSpeed="11.18" length="7.14" nVehEntered="7"/>
    <interval begin="0.00" end="30.00" id="od2_0" nVehContrib="6" flow="720.00" occupancy="14.55" speed="11.18" harmonicMeanSpeed="11.18" length="7.50" nVehEntered="7"/>
    <interval begin="0.00" end="30.00" id="od2_1" nVehContrib="1" flow="120.00" occupancy="2.09" speed="11.18" harmonicMeanSpeed="11.18" length="7.00" nVehEntered="1"/>
    <interval begin="0.00" end="30.00" id="od2_2" nVehContrib="6" flow="720.00" occupancy="13.32" speed="11.18" harmonicMeanSpeed="11.18" length="7.00" nVehEntered="7"/>
    <interval begin="0.00" end="30.00" id="od3_0" nVehContrib="8" flow="960.00" occupancy="16.67" speed="11.02" harmonicMeanSpeed="11.01" length="6.88" nVehEntered="8"/>
    <interval begin="0.00" end="30.00" id="od3_1" nVehContrib="1" flow="120.00" occupancy="2.39" speed="11.18" harmonicMeanSpeed="11.18" length="8.00" nVehEntered="1"/>
    <interval begin="0.00" end="30.00" id="od3_2" nVehContrib="2" flow="240.00" occupancy="6.55" speed="11.18" harmonicMeanSpeed="11.18" length="8.00" nVehEntered="3"/>
    <interval begin="0.00" end="30.00" id="od4_0" nVehContrib="9" flow="1080.00" occupancy="20.10" speed="10.64" harmonicMeanSpeed="10.33" length="7.00" nVehEntered="9"/>
    <interval begin="0.00" end="30.00" id="od4_1" nVehContrib="0" flow="0.00" occupancy="0.00" speed="-1.00" harmonicMeanSpeed="-1.00" length="-1.00" nVehEntered="0"/>
    <interval begin="0.00" end="30.00" id="od4_2" nVehContrib="6" flow="720.00" occupancy="14.88" speed="11.18" harmonicMeanSpeed="11.18" length="7.67" nVehEntered="7"/>
    <interval begin="0.00" end="30.00" id="ood1_0" nVehContrib="7" flow="840.00" occupancy="17.86" speed="11.18" harmonicMeanSpeed="11.18" length="8.29" nVehEntered="8"/>
    <interval begin="0.00" end="30.00" id="ood1_1" nVehContrib="1" flow="120.00" occupancy="2.39" speed="11.18" harmonicMeanSpeed="11.18" length="8.00" nVehEntered="1"/>
    <interval begin="0.00" end="30.00" id="ood1_2" nVehContrib="8" flow="960.00" occupancy="16.40" speed="11.18" harmonicMeanSpeed="11.18" length="6.88" nVehEntered="8"/>
    <interval begin="0.00" end="30.00" id="ood2_0" nVehContrib="7" flow="840.00" occupancy="14.91" speed="11.18" harmonicMeanSpeed="11.18" length="7.14" nVehEntered="7"/>
    <interval begin="0.00" end="30.00" id="ood2_1" nVehContrib="1" flow="120.00" occupancy="2.39" speed="11.18" harmonicMeanSpeed="11.18" length="7.00" nVehEntered="2"/>
    <interval begin="0.00" end="30.00" id="ood2_2" nVehContrib="7" flow="840.00" occupancy="14.91" speed="11.18" harmonicMeanSpeed="11.18" length="7.14" nVehEntered="7"/>
    <interval begin="0.00" end="30.00" id="ood3_0" nVehContrib="9" flow="1080.00" occupancy="19.08" speed="11.18" harmonicMeanSpeed="11.18" length="7.11" nVehEntered="9"/>
    <interval begin="0.00" end="30.00" id="ood3_1" nVehContrib="1" flow="120.00" occupancy="2.39" speed="11.18" harmonicMeanSpeed="11.18" length="8.00" nVehEntered="1"/>
    <interval begin="0.00" end="30.00" id="ood3_2" nVehContrib="4" flow="480.00" occupancy="9.24" speed="11.18" harmonicMeanSpeed="11.18" length="7.75" nVehEntered="4"/>
    <interval begin="0.00" end="30.00" id="ood4_0" nVehContrib="11" flow="1320.00" occupancy="23.09" speed="11.10" harmonicMeanSpeed="11.09" length="7.00" nVehEntered="11"/>
    <interval begin="0.00" end="30.00" id="ood4_1" nVehContrib="0" flow="0.00" occupancy="0.00" speed="-1.00" harmonicMeanSpeed="-1.00" length="-1.00" nVehEntered="0"/>
    <interval begin="0.00" end="30.00" id="ood4_2" nVehContrib="7" flow="840.00" occupancy="16.80" speed="11.18" harmonicMeanSpeed="11.18" length="7.43" nVehEntered="8"/>
    <interval begin="0.00" end="30.00" id="oood1_0" nVehContrib="9" flow="1080.00" occupancy="22.66" speed="11.18" harmonicMeanSpeed="11.18" length="8.44" nVehEntered="9"/>
    <interval begin="0.00" end="30.00" id="oood1_1" nVehContrib="1" flow="120.00" occupancy="2.39" speed="11.18" harmonicMeanSpeed="11.18" length="8.00" nVehEntered="1"/>
    <interval begin="0.00" end="30.00" id="oood1_2" nVehContrib="9" flow="1080.00" occupancy="18.09" speed="11.03" harmonicMeanSpeed="11.02" length="6.67" nVehEntered="9"/>
    <interval begin="0.00" end="30.00" id="oood2_0" nVehContrib="8" flow="960.00" occupancy="17.47" speed="11.08" harmonicMeanSpeed="11.08" length="7.25" nVehEntered="8"/>
    <interval begin="0.00" end="30.00" id="oood2_1" nVehContrib="2" flow="240.00" occupancy="4.17" speed="11.18" harmonicMeanSpeed="11.18" length="7.00" nVehEntered="2"/>
    <interval begin="0.00" end="30.00" id="oood2_2" nVehContrib="7" flow="840.00" occupancy="14.91" speed="11.18" harmonicMeanSpeed="11.18" length="7.14" nVehEntered="7"/>
    <interval begin="0.00" end="30.00" id="oood3_0" nVehContrib="10" flow="1200.00" occupancy="21.25" speed="10.90" harmonicMeanSpeed="10.87" length="6.90" nVehEntered="10"/>
    <interval begin="0.00" end="30.00" id="oood3_1" nVehContrib="1" flow="120.00" occupancy="2.39" speed="11.18" harmonicMeanSpeed="11.18" length="8.00" nVehEntered="1"/>
    <interval begin="0.00" end="30.00" id="oood3_2" nVehContrib="5" flow="600.00" occupancy="11.33" speed="11.18" harmonicMeanSpeed="11.18" length="7.60" nVehEntered="5"/>
    <interval begin="0.00" end="30.00" id="oood4_0" nVehContrib="12" flow="1440.00" occupancy="25.44" speed="11.18" harmonicMeanSpeed="11.18" length="7.00" nVehEntered="13"/>
    <interval begin="0.00" end="30.00" id="oood4_1" nVehContrib="0" flow="0.00" occupancy="0.00" speed="-1.00" harmonicMeanSpeed="-1.00" length="-1.00" nVehEntered="0"/>
    <interval begin="0.00" end="30.00" id="oood4_2" nVehContrib="8" flow="960.00" occupancy="18.46" speed="11.18" harmonicMeanSpeed="11.18" length="7.25" nVehEntered="9"/>
    <interval begin="0.00" end="30.00" id="ooood1_0" nVehContrib="13" flow="1560.00" occupancy="7.82" speed="40.49" harmonicMeanSpeed="38.08" length="7.31" nVehEntered="13"/>
    <interval begin="0.00" end="30.00" id="ooood1_1" nVehContrib="9" flow="1080.00" occupancy="5.42" speed="42.47" harmonicMeanSpeed="40.81" length="7.67" nVehEntered="9"/>
    <interval begin="0.00" end="30.00" id="ooood1_2" nVehContrib="4" flow="480.00" occupancy="2.41" speed="42.94" harmonicMeanSpeed="42.47" length="7.75" nVehEntered="4"/>
    <interval begin="0.00" end="30.00" id="ooood2_0" nVehContrib="2" flow="240.00" occupancy="1.20" speed="41.55" harmonicMeanSpeed="39.89" length="7.50" nVehEntered="2"/>
    <interval begin="0.00" end="30.00" id="ooood2_1" nVehContrib="11" flow="1320.00" occupancy="6.62" speed="40.29" harmonicMeanSpeed="37.99" length="7.27" nVehEntered="11"/>
    <interval begin="0.00" end="30.00" id="ooood2_2" nVehContrib="11" flow="1320.00" occupancy="6.62" speed="40.29" harmonicMeanSpeed="38.61" length="7.27" nVehEntered="11"/>
    <interval begin="0.00" end="30.00" id="ooood3_0" nVehContrib="5" flow="600.00" occupancy="3.01" speed="35.46" harmonicMeanSpeed="34.57" length="6.40" nVehEntered="5"/>
    <interval begin="0.00" end="30.00" id="ooood3_1" nVehContrib="6" flow="720.00" occupancy="3.61" speed="33.24" harmonicMeanSpeed="31.54" length="6.00" nVehEntered="6"/>
    <interval begin="0.00" end="30.00" id="ooood3_2" nVehContrib="11" flow="1320.00" occupancy="6.62" speed="42.31" harmonicMeanSpeed="40.75" length="7.64" nVehEntered="11"/>
    <interval begin="0.00" end="30.00" id="ooood4_0" nVehContrib="10" flow="1200.00" occupancy="6.02" speed="39.89" harmonicMeanSpeed="38.37" length="7.20" nVehEntered="10"/>
    <interval begin="0.00" end="30.00" id="ooood4_1" nVehContrib="11" flow="1320.00" occupancy="6.62" speed="36.26" harmonicMeanSpeed="34.97" length="6.55" nVehEntered="11"/>
    <interval begin="0.00" end="30.00" id="ooood4_2" nVehContrib="7" flow="840.00" occupancy="4.21" speed="37.20" harmonicMeanSpeed="35.62" length="6.71" nVehEntered="7"/>
    <interval begin="30.00" end="60.00" id="d1_0" nVehContrib="9" flow="1080.00" occupancy="21.23" speed="11.18" harmonicMeanSpeed="11.18" length="7.78" nVehEntered="10"/>
    <interval begin="30.00" end="60.00" id="d1_1" nVehContrib="0" flow="0.00" occupancy="0.00" speed="-1.00" harmonicMeanSpeed="-1.00" length="-1.00" nVehEntered="0"/>
    <interval begin="30.00" end="60.00" id="d1_2" nVehContrib="5" flow="600.00" occupancy="76.27" speed="8.52" harmonicMeanSpeed="2.68" length="5.80" nVehEntered="6"/>
    <interval begin="30.00" end="60.00" id="d2_0" nVehContrib="13" flow="1560.00" occupancy="27.86" speed="10.88" harmonicMeanSpeed="10.82" length="7.38" nVehEntered="12"/>
    <interval begin="30.00" end="60.00" id="d2_1" nVehContrib="2" flow="240.00" occupancy="3.58" speed="11.18" harmonicMeanSpeed="11.18" length="6.00" nVehEntered="2"/>
    <interval begin="30.00" end="60.00" id="d2_2" nVehContrib="3" flow="360.00" occupancy="92.21" speed="7.29" harmonicMeanSpeed="1.97" length="7.33" nVehEntered="3"/>
    <interval begin="30.00" end="60.00" id="d3_0" nVehContrib="15" flow="1800.00" occupancy="43.76" speed="10.21" harmonicMeanSpeed="7.28" length="7.07" nVehEntered="15"/>
    <interval begin="30.00" end="60.00" id="d3_1" nVehContrib="0" flow="0.00" occupancy="0.00" speed="-1.00" harmonicMeanSpeed="-1.00" length="-1.00" nVehEntered="0"/>
    <interval begin="30.00" end="60.00" id="d3_2" nVehContrib="4" flow="480.00" occupancy="57.51" speed="11.00" harmonicMeanSpeed="10.99" length="6.75" nVehEntered="5"/>
    <interval begin="30.00" end="60.00" id="d4_0" nVehContrib="11" flow="1320.00" occupancy="88.01" speed="9.19" harmonicMeanSpeed="2.31" length="6.45" nVehEntered="10"/>
    <interval begin="30.00" end="60.00" id="d4_1" nVehContrib="2" flow="240.00" occupancy="3.28" speed="11.18" harmonicMeanSpeed="11.18" length="5.50" nVehEntered="2"/>
    <interval begin="30.00" end="60.00" id="d4_2" nVehContrib="4" flow="480.00" occupancy="96.18" speed="8.49" harmonicMeanSpeed="1.49" length="6.50" nVehEntered="5"/>
    <interval begin="30.00" end="60.00" id="od1_0" nVehContrib="9" flow="1080.00" occupancy="21.87" speed="11.18" harmonicMeanSpeed="11.18" length="7.67" nVehEntered="10"/>
    <interval begin="30.00" end="60.00" id="od1_1" nVehContrib="0" flow="0.00" occupancy="0.00" speed="-1.00" harmonicMeanSpeed="-1.00" length="-1.00" nVehEntered="0"/>
    <interval begin="30.00" end="60.00" id="od1_2" nVehContrib="7" flow="840.00" occupancy="70.60" speed="8.31" harmonicMeanSpeed="3.99" length="6.86" nVehEntered="8"/>
    <interval begin="30.00" end="60.00" id="od2_0" nVehContrib="13" flow="1560.00" occupancy="27.19" speed="11.18" harmonicMeanSpeed="11.18" length="7.31" nVehEntered="12"/>
    <interval begin="30.00" end="60.00" id="od2_1" nVehContrib="2" flow="240.00" occupancy="3.58" speed="11.18" harmonicMeanSpeed="11.18" length="6.00" nVehEntered="2"/>
    <interval begin="30.00" end="60.00" id="od2_2" nVehContrib="5" flow="600.00" occupancy="13.49" speed="9.14" harmonicMeanSpeed="8.27" length="7.60" nVehEntered="4"/>
    <interval begin="30.00" end="60.00" id="od3_0" nVehContrib="13" flow="1560.00" occupancy="45.84" speed="9.80" harmonicMeanSpeed="6.92" length="7.08" nVehEntered="13"/>
    <interval begin="30.00" end="60.00" id="od3_1" nVehContrib="0" flow="0.00" occupancy="1.41" speed="-1.00" harmonicMeanSpeed="-1.00" length="-1.00" nVehEntered="1"/>
    <interval begin="30.00" end="60.00" id="od3_2" nVehContrib="7" flow="840.00" occupancy="43.37" speed="10.97" harmonicMeanSpeed="10.95" length="6.43" nVehEntered="7"/>
    <interval begin="30.00" end="60.00" id="od4_0" nVehContrib="9" flow="1080.00" occupancy="18.70" speed="10.59" harmonicMeanSpeed="10.53" length="6.56" nVehEntered="9"/>
    <interval begin="30.00" end="60.00" id="od4_1" nVehContrib="2" flow="240.00" occupancy="3.28" speed="11.18" harmonicMeanSpeed="11.18" length="5.50" nVehEntered="2"/>
    <interval begin="30.00" end="60.00" id="od4_2" nVehContrib="6" flow="720.00" occupancy="89.35" speed="9.33" harmonicMeanSpeed="1.65" length="6.00" nVehEntered="6"/>
    <interval begin="30.00" end="60.00" id="ood1_0" nVehContrib="10" flow="1200.00" occupancy="23.36" speed="11.18" harmonicMeanSpeed="11.18" length="7.50" nVehEntered="10"/>
    <interval begin="30.00" end="60.00" id="ood1_1" nVehContrib="0" flow="0.00" occupancy="0.00" speed="-1.00" harmonicMeanSpeed="-1.00" length="-1.00" nVehEntered="0"/>
    <interval begin="30.00" end="60.00" id="ood1_2" nVehContrib="8" flow="960.00" occupancy="43.83" speed="10.14" harmonicMeanSpeed="9.88" length="6.88" nVehEntered="9"/>
    <interval begin="30.00" end="60.00" id="ood2_0" nVehContrib="13" flow="1560.00" occupancy="28.92" speed="11.18" harmonicMeanSpeed="11.18" length="7.46" nVehEntered="13"/>
    <interval begin="30.00" end="60.00" id="ood2_1" nVehContrib="2" flow="240.00" occupancy="3.28" speed="11.18" harmonicMeanSpeed="11.18" length="6.00" nVehEntered="1"/>
    <interval begin="30.00" end="60.00" id="ood2_2" nVehContrib="5" flow="600.00" occupancy="11.33" speed="11.18" harmonicMeanSpeed="11.18" length="7.60" nVehEntered="5"/>
    <interval begin="30.00" end="60.00" id="ood3_0" nVehContrib="12" flow="1440.00" occupancy="26.58" speed="11.04" harmonicMeanSpeed="11.02" length="6.92" nVehEntered="13"/>
    <interval begin="30.00" end="60.00" id="ood3_1" nVehContrib="1" flow="120.00" occupancy="2.68" speed="11.18" harmonicMeanSpeed="11.18" length="9.00" nVehEntered="1"/>
    <interval begin="30.00" end="60.00" id="ood3_2" nVehContrib="7" flow="840.00" occupancy="42.35" speed="10.73" harmonicMeanSpeed="10.59" length="6.43" nVehEntered="8"/>
    <interval begin="30.00" end="60.00" id="ood4_0" nVehContrib="7" flow="840.00" occupancy="77.73" speed="8.26" harmonicMeanSpeed="2.11" length="6.43" nVehEntered="8"/>
    <interval begin="30.00" end="60.00" id="ood4_1" nVehContrib="2" flow="240.00" occupancy="3.28" speed="11.18" harmonicMeanSpeed="11.18" length="5.50" nVehEntered="2"/>
    <interval begin="30.00" end="60.00" id="ood4_2" nVehContrib="7" flow="840.00" occupancy="63.76" speed="9.45" harmonicMeanSpeed="3.03" length="6.71" nVehEntered="7"/>
    <interval begin="30.00" end="60.00" id="oood1_0" nVehContrib="10" flow="1200.00" occupancy="22.06" speed="11.18" harmonicMeanSpeed="11.18" length="7.40" nVehEntered="10"/>
    <interval begin="30.00" end="60.00" id="oood1_1" nVehContrib="0" flow="0.00" occupancy="0.00" speed="-1.00" harmonicMeanSpeed="-1.00" length="-1.00" nVehEntered="0"/>
    <interval begin="30.00" end="60.00" id="oood1_2" nVehContrib="10" flow="1200.00" occupancy="31.51" speed="9.64" harmonicMeanSpeed="8.26" length="7.50" nVehEntered="10"/>
    <interval begin="30.00" end="60.00" id="oood2_0" nVehContrib="13" flow="1560.00" occupancy="29.51" speed="11.08" harmonicMeanSpeed="11.08" length="7.54" nVehEntered="13"/>
    <interval begin="30.00" end="60.00" id="oood2_1" nVehContrib="1" flow="120.00" occupancy="1.49" speed="11.18" harmonicMeanSpeed="11.18" length="5.00" nVehEntered="1"/>
    <interval begin="30.00" end="60.00" id="oood2_2" nVehContrib="6" flow="720.00" occupancy="14.02" speed="11.18" harmonicMeanSpeed="11.18" length="7.83" nVehEntered="6"/>
    <interval begin="30.00" end="60.00" id="oood3_0" nVehContrib="13" flow="1560.00" occupancy="28.08" speed="11.05" harmonicMeanSpeed="11.05" length="7.15" nVehEntered="13"/>
    <interval begin="30.00" end="60.00" id="oood3_1" nVehContrib="1" flow="120.00" occupancy="2.68" speed="11.18" harmonicMeanSpeed="11.18" length="9.00" nVehEntered="1"/>
    <interval begin="30.00" end="60.00" id="oood3_2" nVehContrib="9" flow="1080.00" occupancy="18.52" speed="10.90" harmonicMeanSpeed="10.85" length="6.67" nVehEntered="9"/>
    <interval begin="30.00" end="60.00" id="oood4_0" nVehContrib="7" flow="840.00" occupancy="55.96" speed="7.69" harmonicMeanSpeed="2.27" length="6.29" nVehEntered="7"/>
    <interval begin="30.00" end="60.00" id="oood4_1" nVehContrib="2" flow="240.00" occupancy="3.35" speed="10.97" harmonicMeanSpeed="10.97" length="5.50" nVehEntered="2"/>
    <interval begin="30.00" end="60.00" id="oood4_2" nVehContrib="8" flow="960.00" occupancy="18.05" speed="10.21" harmonicMeanSpeed="9.94" length="7.00" nVehEntered="7"/>
    <interval begin="30.00" end="60.00" id="ooood1_0" nVehContrib="7" flow="840.00" occupancy="4.21" speed="42.74" harmonicMeanSpeed="41.25" length="7.71" nVehEntered="7"/>
    <interval begin="30.00" end="60.00" id="ooood1_1" nVehContrib="13" flow="1560.00" occupancy="7.82" speed="38.35" harmonicMeanSpeed="37.24" length="6.92" nVehEntered="13"/>
    <interval begin="30.00" end="60.00" id="ooood1_2" nVehContrib="1" flow="120.00" occupancy="0.60" speed="27.70" harmonicMeanSpeed="27.70" length="5.00" nVehEntered="1"/>
    <interval begin="30.00" end="60.00" id="ooood2_0" nVehContrib="2" flow="240.00" occupancy="1.20" speed="41.55" harmonicMeanSpeed="41.37" length="7.50" nVehEntered="2"/>
    <interval begin="30.00" end="60.00" id="ooood2_1" nVehContrib="8" flow="960.00" occupancy="4.81" speed="42.24" harmonicMeanSpeed="40.56" length="7.63" nVehEntered="8"/>
    <interval begin="30.00" end="60.00" id="ooood2_2" nVehContrib="9" flow="1080.00" occupancy="5.42" speed="40.01" harmonicMeanSpeed="38.04" length="7.22" nVehEntered="9"/>
    <interval begin="30.00" end="60.00" id="ooood3_0" nVehContrib="10" flow="1200.00" occupancy="6.35" speed="44.32" harmonicMeanSpeed="43.43" length="8.00" nVehEntered="11"/>
    <interval begin="30.00" end="60.00" id="ooood3_1" nVehContrib="6" flow="720.00" occupancy="3.61" speed="38.78" harmonicMeanSpeed="36.37" length="7.00" nVehEntered="6"/>
    <interval begin="30.00" end="60.00" id="ooood3_2" nVehContrib="9" flow="1080.00" occupancy="5.42" speed="39.40" harmonicMeanSpeed="37.92" length="7.11" nVehEntered="9"/>
    <interval begin="30.00" end="60.00" id="ooood4_0" nVehContrib="2" flow="240.00" occupancy="1.20" speed="33.24" harmonicMeanSpeed="33.24" length="6.00" nVehEntered="2"/>
    <interval begin="30.00" end="60.00" id="ooood4_1" nVehContrib="9" flow="1080.00" occupancy="5.42" speed="42.47" harmonicMeanSpeed="40.61" length="7.67" nVehEntered="9"/>
    <interval begin="30.00" end="60.00" id="ooood4_2" nVehContrib="8" flow="960.00" occupancy="4.81" speed="36.70" harmonicMeanSpeed="35.42" length="6.63" nVehEntered="8"/>
    <interval begin="60.00" end="90.00" id="d1_0" nVehContrib="13" flow="1560.00" occupancy="26.47" speed="11.18" harmonicMeanSpeed="11.18" length="6.92" nVehEntered="12"/>
    <interval begin="60.00" end="90.00" id="d1_1" nVehContrib="0" flow="0.00" occupancy="0.29" speed="-1.00" harmonicMeanSpeed="-1.00" length="-1.00" nVehEntered="1"/>
    <interval begin="60.00" end="90.00" id="d1_2" nVehContrib="4" flow="480.00" occupancy="96.26" speed="5.66" harmonicMeanSpeed="0.71" length="7.25" nVehEntered="4"/>
    <interval begin="60.00" end="90.00" id="d2_0" nVehContrib="14" flow="1680.00" occupancy="30.41" speed="11.18" harmonicMeanSpeed="11.18" length="7.29" nVehEntered="14"/>
    <interval begin="60.00" end="90.00" id="d2_1" nVehContrib="0" flow="0.00" occupancy="0.00" speed="-1.00" harmonicMeanSpeed="-1.00" length="-1.00" nVehEntered="0"/>
    <interval begin="60.00" end="90.00" id="d2_2" nVehContrib="4" flow="480.00" occupancy="39.64" speed="5.29" harmonicMeanSpeed="0.93" length="7.25" nVehEntered="4"/>
    <interval begin="60.00" end="90.00" id="d3_0" nVehContrib="12" flow="1440.00" occupancy="27.95" speed="10.87" harmonicMeanSpeed="10.81" length="7.50" nVehEntered="12"/>
    <interval begin="60.00" end="90.00" id="d3_1" nVehContrib="2" flow="240.00" occupancy="5.16" speed="11.18" harmonicMeanSpeed="11.18" length="7.50" nVehEntered="3"/>
    <interval begin="60.00" end="90.00" id="d3_2" nVehContrib="4" flow="480.00" occupancy="41.61" speed="7.58" harmonicMeanSpeed="1.19" length="6.25" nVehEntered="4"/>
    <interval begin="60.00" end="90.00" id="d4_0" nVehContrib="11" flow="1320.00" occupancy="23.26" speed="11.18" harmonicMeanSpeed="11.18" length="7.09" nVehEntered="11"/>
    <interval begin="60.00" end="90.00" id="d4_1" nVehContrib="3" flow="360.00" occupancy="7.45" speed="11.18" harmonicMeanSpeed="11.18" length="8.33" nVehEntered="3"/>
    <interval begin="60.00" end="90.00" id="d4_2" nVehContrib="3" flow="360.00" occupancy="43.68" speed="6.45" harmonicMeanSpeed="0.98" length="6.33" nVehEntered="3"/>
    <interval begin="60.00" end="90.00" id="od1_0" nVehContrib="12" flow="1440.00" occupancy="23.15" speed="11.18" harmonicMeanSpeed="11.18" length="6.83" nVehEntered="11"/>
    <interval begin="60.00" end="90.00" id="od1_1" nVehContrib="1" flow="120.00" occupancy="2.39" speed="11.18" harmonicMeanSpeed="11.18" length="8.00" nVehEntered="1"/>
    <interval begin="60.00" end="90.00" id="od1_2" nVehContrib="3" flow="360.00" occupancy="41.40" speed="7.41" harmonicMeanSpeed="0.83" length="6.67" nVehEntered="3"/>
    <interval begin="60.00" end="90.00" id="od2_0" nVehContrib="14" flow="1680.00" occupancy="29.70" speed="11.18" harmonicMeanSpeed="11.18" length="7.07" nVehEntered="15"/>
    <interval begin="60.00" end="90.00" id="od2_1" nVehContrib="0" flow="0.00" occupancy="0.00" speed="-1.00" harmonicMeanSpeed="-1.00" length="-1.00" nVehEntered="0"/>
    <interval begin="60.00" end="90.00" id="od2_2" nVehContrib="3" flow="360.00" occupancy="88.80" speed="4.34" harmonicMeanSpeed="1.23" length="8.67" nVehEntered="4"/>
    <interval begin="60.00" end="90.00" id="od3_0" nVehContrib="13" flow="1560.00" occupancy="28.95" speed="11.16" harmonicMeanSpeed="11.16" length="7.46" nVehEntered="13"/>
    <interval begin="60.00" end="90.00" id="od3_1" nVehContrib="3" flow="360.00" occupancy="5.45" speed="11.18" harmonicMeanSpeed="11.18" length="7.67" nVehEntered="2"/>
    <interval begin="60.00" end="90.00" id="od3_2" nVehContrib="4" flow="480.00" occupancy="95.71" speed="5.78" harmonicMeanSpeed="1.11" length="7.25" nVehEntered="4"/>
    <interval begin="60.00" end="90.00" id="od4_0" nVehContrib="11" flow="1320.00" occupancy="22.66" speed="11.18" harmonicMeanSpeed="11.18" length="6.91" nVehEntered="11"/>
    <interval begin="60.00" end="90.00" id="od4_1" nVehContrib="3" flow="360.00" occupancy="7.45" speed="11.18" harmonicMeanSpeed="11.18" length="8.33" nVehEntered="3"/>
    <interval begin="60.00" end="90.00" id="od4_2" nVehContrib="2" flow="240.00" occupancy="97.05" speed="5.70" harmonicMeanSpeed="0.98" length="8.50" nVehEntered="2"/>
    <interval begin="60.00" end="90.00" id="ood1_0" nVehContrib="12" flow="1440.00" occupancy="22.59" speed="11.18" harmonicMeanSpeed="11.18" length="6.75" nVehEntered="11"/>
    <interval begin="60.00" end="90.00" id="ood1_1" nVehContrib="1" flow="120.00" occupancy="2.39" speed="11.18" harmonicMeanSpeed="11.18" length="8.00" nVehEntered="1"/>
    <interval begin="60.00" end="90.00" id="ood1_2" nVehContrib="4" flow="480.00" occupancy="88.95" speed="5.59" harmonicMeanSpeed="0.81" length="7.75" nVehEntered="3"/>
    <interval begin="60.00" end="90.00" id="ood2_0" nVehContrib="14" flow="1680.00" occupancy="29.52" speed="11.18" harmonicMeanSpeed="11.18" length="7.07" nVehEntered="14"/>
    <interval begin="60.00" end="90.00" id="ood2_1" nVehContrib="0" flow="0.00" occupancy="0.00" speed="-1.00" harmonicMeanSpeed="-1.00" length="-1.00" nVehEntered="0"/>
    <interval begin="60.00" end="90.00" id="ood2_2" nVehContrib="4" flow="480.00" occupancy="82.37" speed="5.87" harmonicMeanSpeed="1.62" length="8.25" nVehEntered="5"/>
    <interval begin="60.00" end="90.00" id="ood3_0" nVehContrib="14" flow="1680.00" occupancy="30.08" speed="11.18" harmonicMeanSpeed="11.18" length="7.57" nVehEntered="13"/>
    <interval begin="60.00" end="90.00" id="ood3_1" nVehContrib="2" flow="240.00" occupancy="4.17" speed="11.18" harmonicMeanSpeed="11.18" length="7.00" nVehEntered="2"/>
    <interval begin="60.00" end="90.00" id="ood3_2" nVehContrib="4" flow="480.00" occupancy="95.75" speed="5.83" harmonicMeanSpeed="1.20" length="7.00" nVehEntered="4"/>
    <interval begin="60.00" end="90.00" id="ood4_0" nVehContrib="12" flow="1440.00" occupancy="23.49" speed="11.18" harmonicMeanSpeed="11.18" length="7.00" nVehEntered="11"/>
    <interval begin="60.00" end="90.00" id="ood4_1" nVehContrib="4" flow="480.00" occupancy="9.54" speed="11.18" harmonicMeanSpeed="11.18" length="8.00" nVehEntered="4"/>
    <interval begin="60.00" end="90.00" id="ood4_2" nVehContrib="3" flow="360.00" occupancy="96.58" speed="3.91" harmonicMeanSpeed="0.53" length="6.67" nVehEntered="3"/>
    <interval begin="60.00" end="90.00" id="oood1_0" nVehContrib="10" flow="1200.00" occupancy="19.75" speed="11.14" harmonicMeanSpeed="11.14" length="6.40" nVehEntered="11"/>
    <interval begin="60.00" end="90.00" id="oood1_1" nVehContrib="2" flow="240.00" occupancy="5.08" speed="11.16" harmonicMeanSpeed="11.16" length="8.50" nVehEntered="2"/>
    <interval begin="60.00" end="90.00" id="oood1_2" nVehContrib="3" flow="360.00" occupancy="47.12" speed="5.99" harmonicMeanSpeed="1.82" length="7.00" nVehEntered="3"/>
    <interval begin="60.00" end="90.00" id="oood2_0" nVehContrib="14" flow="1680.00" occupancy="29.72" speed="11.11" harmonicMeanSpeed="11.11" length="7.07" nVehEntered="14"/>
    <interval begin="60.00" end="90.00" id="oood2_1" nVehContrib="0" flow="0.00" occupancy="0.00" speed="-1.00" harmonicMeanSpeed="-1.00" length="-1.00" nVehEntered="0"/>
    <interval begin="60.00" end="90.00" id="oood2_2" nVehContrib="5" flow="600.00" occupancy="15.40" speed="9.57" harmonicMeanSpeed="9.12" length="7.60" nVehEntered="6"/>
    <interval begin="60.00" end="90.00" id="oood3_0" nVehContrib="13" flow="1560.00" occupancy="29.91" speed="11.10" harmonicMeanSpeed="11.10" length="7.54" nVehEntered="14"/>
    <interval begin="60.00" end="90.00" id="oood3_1" nVehContrib="2" flow="240.00" occupancy="4.19" speed="11.12" harmonicMeanSpeed="11.12" length="7.00" nVehEntered="2"/>
    <interval begin="60.00" end="90.00" id="oood3_2" nVehContrib="4" flow="480.00" occupancy="64.64" speed="6.07" harmonicMeanSpeed="2.27" length="6.50" nVehEntered="5"/>
    <interval begin="60.00" end="90.00" id="oood4_0" nVehContrib="12" flow="1440.00" occupancy="24.94" speed="10.80" harmonicMeanSpeed="10.79" length="7.08" nVehEntered="11"/>
    <interval begin="60.00" end="90.00" id="oood4_1" nVehContrib="4" flow="480.00" occupancy="9.56" speed="11.16" harmonicMeanSpeed="11.16" length="8.00" nVehEntered="4"/>
    <interval begin="60.00" end="90.00" id="oood4_2" nVehContrib="3" flow="360.00" occupancy="50.05" speed="5.84" harmonicMeanSpeed="3.68" length="6.67" nVehEntered="4"/>