<?xml version="1.0" encoding="UTF-8"?>

<!-- generated on 03/24/20 03:55:14 by Eclipse SUMO GUI Version 1.3.1
<configuration xmlns:xsi="http://www.w3.org/2001/XMLSchema-instance" xsi:noNamespaceSchemaLocation="http://sumo.dlr.de/xsd/sumoConfiguration.xsd">

    <input>
        <net-file value="data/lane3.net.xml"/>
        <route-files value="data/icacc+.rou.xml"/>
        <additional-files value="data/icacc+.det.xml"/>
    </input>

    <output>
        <tripinfo-output value="tripinfo.xml"/>
    </output>

    <time>
        <begin value="0"/>
        <step-length value="0.1"/>
    </time>

    <processing>
        <collision.mingap-factor value="0"/>
    </processing>

    <report>
        <verbose value="true"/>
        <no-step-log value="true"/>
    </report>

    <traci_server>
        <remote-port value="4543"/>
    </traci_server>

    <gui_only>
        <start value="true"/>
        <tracker-interval value="0.1"/>
    </gui_only>

</configuration>
-->

<detector xmlns:xsi="http://www.w3.org/2001/XMLSchema-instance" xsi:noNamespaceSchemaLocation="http://sumo.dlr.de/xsd/det_e1_file.xsd">
    <interval begin="0.00" end="30.00" id="d1_0" nVehContrib="5" flow="600.00" occupancy="11.93" speed="11.18" harmonicMeanSpeed="11.18" length="8.00" nVehEntered="5"/>
    <interval begin="0.00" end="30.00" id="d1_1" nVehContrib="0" flow="0.00" occupancy="0.00" speed="-1.00" harmonicMeanSpeed="-1.00" length="-1.00" nVehEntered="0"/>
    <interval begin="0.00" end="30.00" id="d1_2" nVehContrib="8" flow="960.00" occupancy="15.54" speed="11.15" harmonicMeanSpeed="11.15" length="6.50" nVehEntered="8"/>
    <interval begin="0.00" end="30.00" id="d2_0" nVehContrib="7" flow="840.00" occupancy="13.71" speed="11.18" harmonicMeanSpeed="11.18" length="6.57" nVehEntered="7"/>
    <interval begin="0.00" end="30.00" id="d2_1" nVehContrib="1" flow="120.00" occupancy="2.68" speed="11.18" harmonicMeanSpeed="11.18" length="9.00" nVehEntered="1"/>
    <interval begin="0.00" end="30.00" id="d2_2" nVehContrib="4" flow="480.00" occupancy="9.54" speed="11.18" harmonicMeanSpeed="11.18" length="8.00" nVehEntered="4"/>
    <interval begin="0.00" end="30.00" id="d3_0" nVehContrib="1" flow="120.00" occupancy="2.09" speed="11.18" harmonicMeanSpeed="11.18" length="7.00" nVehEntered="1"/>
    <interval begin="0.00" end="30.00" id="d3_1" nVehContrib="0" flow="0.00" occupancy="0.00" speed="-1.00" harmonicMeanSpeed="-1.00" length="-1.00" nVehEntered="0"/>
    <interval begin="0.00" end="30.00" id="d3_2" nVehContrib="8" flow="960.00" occupancy="14.62" speed="11.18" harmonicMeanSpeed="11.18" length="6.13" nVehEntered="8"/>
    <interval begin="0.00" end="30.00" id="d4_0" nVehContrib="6" flow="720.00" occupancy="11.63" speed="11.18" harmonicMeanSpeed="11.18" length="6.50" nVehEntered="6"/>
    <interval begin="0.00" end="30.00" id="d4_1" nVehContrib="1" flow="120.00" occupancy="2.39" speed="11.18" harmonicMeanSpeed="11.18" length="8.00" nVehEntered="1"/>
    <interval begin="0.00" end="30.00" id="d4_2" nVehContrib="6" flow="720.00" occupancy="11.03" speed="11.18" harmonicMeanSpeed="11.18" length="6.17" nVehEntered="6"/>
    <interval begin="0.00" end="30.00" id="od1_0" nVehContrib="6" flow="720.00" occupancy="14.61" speed="11.18" harmonicMeanSpeed="11.18" length="8.17" nVehEntered="6"/>
    <interval begin="0.00" end="30.00" id="od1_1" nVehContrib="0" flow="0.00" occupancy="0.00" speed="-1.00" harmonicMeanSpeed="-1.00" length="-1.00" nVehEntered="0"/>
    <interval begin="0.00" end="30.00" id="od1_2" nVehContrib="9" flow="1080.00" occupancy="18.19" speed="11.18" harmonicMeanSpeed="11.18" length="6.78" nVehEntered="9"/>
    <interval begin="0.00" end="30.00" id="od2_0" nVehContrib="7" flow="840.00" occupancy="13.71" speed="11.18" harmonicMeanSpeed="11.18" length="6.57" nVehEntered="7"/>
    <interval begin="0.00" end="30.00" id="od2_1" nVehContrib="1" flow="120.00" occupancy="2.68" speed="11.18" harmonicMeanSpeed="11.18" length="9.00" nVehEntered="1"/>
    <interval begin="0.00" end="30.00" id="od2_2" nVehContrib="5" flow="600.00" occupancy="12.22" speed="11.18" harmonicMeanSpeed="11.18" length="8.20" nVehEntered="5"/>
    <interval begin="0.00" end="30.00" id="od3_0" nVehContrib="2" flow="240.00" occupancy="3.58" speed="11.18" harmonicMeanSpeed="11.18" length="6.00" nVehEntered="2"/>
    <interval begin="0.00" end="30.00" id="od3_1" nVehContrib="0" flow="0.00" occupancy="0.00" speed="-1.00" harmonicMeanSpeed="-1.00" length="-1.00" nVehEntered="0"/>
    <interval begin="0.00" end="30.00" id="od3_2" nVehContrib="9" flow="1080.00" occupancy="16.10" speed="11.18" harmonicMeanSpeed="11.18" length="6.00" nVehEntered="9"/>
    <interval begin="0.00" end="30.00" id="od4_0" nVehContrib="6" flow="720.00" occupancy="11.63" speed="11.18" harmonicMeanSpeed="11.18" length="6.50" nVehEntered="6"/>
    <interval begin="0.00" end="30.00" id="od4_1" nVehContrib="1" flow="120.00" occupancy="2.39" speed="11.18" harmonicMeanSpeed="11.18" length="8.00" nVehEntered="1"/>
    <interval begin="0.00" end="30.00" id="od4_2" nVehContrib="6" flow="720.00" occupancy="12.91" speed="11.18" harmonicMeanSpeed="11.18" length="6.17" nVehEntered="7"/>
    <interval begin="0.00" end="30.00" id="ood1_0" nVehContrib="7" flow="840.00" occupancy="17.29" speed="11.18" harmonicMeanSpeed="11.18" length="8.29" nVehEntered="7"/>
    <interval begin="0.00" end="30.00" id="ood1_1" nVehContrib="0" flow="0.00" occupancy="0.00" speed="-1.00" harmonicMeanSpeed="-1.00" length="-1.00" nVehEntered="0"/>
    <interval begin="0.00" end="30.00" id="ood1_2" nVehContrib="10" flow="1200.00" occupancy="20.27" speed="11.18" harmonicMeanSpeed="11.18" length="6.80" nVehEntered="10"/>
    <interval begin="0.00" end="30.00" id="ood2_0" nVehContrib="7" flow="840.00" occupancy="13.71" speed="11.18" harmonicMeanSpeed="11.18" length="6.57" nVehEntered="7"/>
    <interval begin="0.00" end="30.00" id="ood2_1" nVehContrib="1" flow="120.00" occupancy="2.68" speed="11.18" harmonicMeanSpeed="11.18" length="9.00" nVehEntered="1"/>
    <interval begin="0.00" end="30.00" id="ood2_2" nVehContrib="6" flow="720.00" occupancy="14.91" speed="11.18" harmonicMeanSpeed="11.18" length="8.33" nVehEntered="6"/>
    <interval begin="0.00" end="30.00" id="ood3_0" nVehContrib="2" flow="240.00" occupancy="3.58" speed="11.18" harmonicMeanSpeed="11.18" length="6.00" nVehEntered="2"/>
    <interval begin="0.00" end="30.00" id="ood3_1" nVehContrib="0" flow="0.00" occupancy="0.00" speed="-1.00" harmonicMeanSpeed="-1.00" length="-1.00" nVehEntered="0"/>
    <interval begin="0.00" end="30.00" id="ood3_2" nVehContrib="10" flow="1200.00" occupancy="18.49" speed="11.18" harmonicMeanSpeed="11.18" length="6.20" nVehEntered="10"/>
    <interval begin="0.00" end="30.00" id="ood4_0" nVehContrib="7" flow="840.00" occupancy="13.12" speed="11.18" harmonicMeanSpeed="11.18" length="6.29" nVehEntered="7"/>
    <interval begin="0.00" end="30.00" id="ood4_1" nVehContrib="1" flow="120.00" occupancy="2.39" speed="11.18" harmonicMeanSpeed="11.18" length="8.00" nVehEntered="1"/>
    <interval begin="0.00" end="30.00" id="ood4_2" nVehContrib="7" flow="840.00" occupancy="13.94" speed="11.18" harmonicMeanSpeed="11.18" length="6.43" nVehEntered="8"/>
    <interval begin="0.00" end="30.00" id="oood1_0" nVehContrib="8" flow="960.00" occupancy="20.04" speed="11.15" harmonicMeanSpeed="11.15" length="8.38" nVehEntered="8"/>
    <interval begin="0.00" end="30.00" id="oood1_1" nVehContrib="0" flow="0.00" occupancy="0.00" speed="-1.00" harmonicMeanSpeed="-1.00" length="-1.00" nVehEntered="0"/>
    <interval begin="0.00" end="30.00" id="oood1_2" nVehContrib="10" flow="1200.00" occupancy="22.10" speed="11.13" harmonicMeanSpeed="11.13" length="6.80" nVehEntered="11"/>
    <interval begin="0.00" end="30.00" id="oood2_0" nVehContrib="7" flow="840.00" occupancy="13.74" speed="11.16" harmonicMeanSpeed="11.16" length="6.57" nVehEntered="7"/>
    <interval begin="0.00" end="30.00" id="oood2_1" nVehContrib="1" flow="120.00" occupancy="2.68" speed="11.18" harmonicMeanSpeed="11.18" length="9.00" nVehEntered="1"/>
    <interval begin="0.00" end="30.00" id="oood2_2" nVehContrib="7" flow="840.00" occupancy="17.06" speed="11.13" harmonicMeanSpeed="11.13" length="8.14" nVehEntered="7"/>
    <interval begin="0.00" end="30.00" id="oood3_0" nVehContrib="3" flow="360.00" occupancy="5.08" speed="11.15" harmonicMeanSpeed="11.15" length="5.67" nVehEntered="3"/>
    <interval begin="0.00" end="30.00" id="oood3_1" nVehContrib="0" flow="0.00" occupancy="0.00" speed="-1.00" harmonicMeanSpeed="-1.00" length="-1.00" nVehEntered="0"/>
    <interval begin="0.00" end="30.00" id="oood3_2" nVehContrib="11" flow="1320.00" occupancy="21.70" speed="10.92" harmonicMeanSpeed="10.90" length="6.45" nVehEntered="11"/>
    <interval begin="0.00" end="30.00" id="oood4_0" nVehContrib="8" flow="960.00" occupancy="15.84" speed="11.16" harmonicMeanSpeed="11.16" length="6.63" nVehEntered="8"/>
    <interval begin="0.00" end="30.00" id="oood4_1" nVehContrib="1" flow="120.00" occupancy="2.39" speed="11.18" harmonicMeanSpeed="11.18" length="8.00" nVehEntered="1"/>
    <interval begin="0.00" end="30.00" id="oood4_2" nVehContrib="9" flow="1080.00" occupancy="16.75" speed="11.14" harmonicMeanSpeed="11.14" length="6.22" nVehEntered="9"/>
    <interval begin="0.00" end="30.00" id="ooood1_0" nVehContrib="7" flow="840.00" occupancy="17.70" speed="12.68" harmonicMeanSpeed="9.53" length="7.43" nVehEntered="8"/>
    <interval begin="0.00" end="30.00" id="ooood1_1" nVehContrib="8" flow="960.00" occupancy="6.79" speed="35.09" harmonicMeanSpeed="24.39" length="7.13" nVehEntered="13"/>
    <interval begin="0.00" end="30.00" id="ooood1_2" nVehContrib="11" flow="1320.00" occupancy="36.85" speed="10.43" harmonicMeanSpeed="6.16" length="6.45" nVehEntered="13"/>
    <interval begin="0.00" end="30.00" id="ooood2_0" nVehContrib="8" flow="960.00" occupancy="34.61" speed="6.61" harmonicMeanSpeed="4.73" length="6.13" nVehEntered="12"/>
    <interval begin="0.00" end="30.00" id="ooood2_1" nVehContrib="10" flow="1200.00" occupancy="29.37" speed="25.35" harmonicMeanSpeed="9.04" length="8.10" nVehEntered="13"/>
    <interval begin="0.00" end="30.00" id="ooood2_2" nVehContrib="4" flow="480.00" occupancy="32.60" speed="4.64" harmonicMeanSpeed="3.08" length="7.00" nVehEntered="7"/>
    <interval begin="0.00" end="30.00" id="ooood3_0" nVehContrib="12" flow="1440.00" occupancy="31.77" speed="18.32" harmonicMeanSpeed="7.07" length="6.17" nVehEntered="13"/>
    <interval begin="0.00" end="30.00" id="ooood3_1" nVehContrib="4" flow="480.00" occupancy="14.27" speed="6.46" harmonicMeanSpeed="6.41" length="6.75" nVehEntered="8"/>
    <interval begin="0.00" end="30.00" id="ooood3_2" nVehContrib="5" flow="600.00" occupancy="43.04" speed="8.23" harmonicMeanSpeed="3.87" length="6.40" nVehEntered="6"/>
    <interval begin="0.00" end="30.00" id="ooood4_0" nVehContrib="8" flow="960.00" occupancy="27.81" speed="9.69" harmonicMeanSpeed="6.56" length="6.63" nVehEntered="10"/>
    <interval begin="0.00" end="30.00" id="ooood4_1" nVehContrib="9" flow="1080.00" occupancy="12.64" speed="22.02" harmonicMeanSpeed="14.20" length="6.22" nVehEntered="11"/>
    <interval begin="0.00" end="30.00" id="ooood4_2" nVehContrib="9" flow="1080.00" occupancy="22.15" speed="12.68" harmonicMeanSpeed="8.25" length="6.22" nVehEntered="12"/>
    <interval begin="30.00" end="60.00" id="d1_0" nVehContrib="11" flow="1320.00" occupancy="25.99" speed="11.16" harmonicMeanSpeed="11.16" length="7.91" nVehEntered="11"/>
    <interval begin="30.00" end="60.00" id="d1_1" nVehContrib="1" flow="120.00" occupancy="1.49" speed="11.18" harmonicMeanSpeed="11.18" length="5.00" nVehEntered="1"/>
    <interval begin="30.00" end="60.00" id="d1_2" nVehContrib="13" flow="1560.00" occupancy="37.85" speed="8.86" harmonicMeanSpeed="6.86" length="6.31" nVehEntered="13"/>
    <interval begin="30.00" end="60.00" id="d2_0" nVehContrib="2" flow="240.00" occupancy="3.88" speed="11.18" harmonicMeanSpeed="11.18" length="6.50" nVehEntered="2"/>
    <interval begin="30.00" end="60.00" id="d2_1" nVehContrib="1" flow="120.00" occupancy="2.39" speed="11.18" harmonicMeanSpeed="11.18" length="8.00" nVehEntered="1"/>
    <interval begin="30.00" end="60.00" id="d2_2" nVehContrib="13" flow="1560.00" occupancy="53.62" speed="8.12" harmonicMeanSpeed="6.06" length="7.00" nVehEntered="14"/>
    <interval begin="30.00" end="60.00" id="d3_0" nVehContrib="4" flow="480.00" occupancy="7.16" speed="11.18" harmonicMeanSpeed="11.18" length="6.00" nVehEntered="4"/>
    <interval begin="30.00" end="60.00" id="d3_1" nVehContrib="1" flow="120.00" occupancy="1.49" speed="11.18" harmonicMeanSpeed="11.18" length="5.00" nVehEntered="1"/>
    <interval begin="30.00" end="60.00" id="d3_2" nVehContrib="11" flow="1320.00" occupancy="57.84" speed="8.25" harmonicMeanSpeed="5.60" length="7.09" nVehEntered="12"/>
    <interval begin="30.00" end="60.00" id="d4_0" nVehContrib="9" flow="1080.00" occupancy="17.59" speed="11.18" harmonicMeanSpeed="11.18" length="6.56" nVehEntered="9"/>
    <interval begin="30.00" end="60.00" id="d4_1" nVehContrib="1" flow="120.00" occupancy="2.68" speed="11.18" harmonicMeanSpeed="11.18" length="9.00" nVehEntered="1"/>
    <interval begin="30.00" end="60.00" id="d4_2" nVehContrib="12" flow="1440.00" occupancy="27.89" speed="9.14" harmonicMeanSpeed="8.71" length="6.17" nVehEntered="12"/>
    <interval begin="30.00" end="60.00" id="od1_0" nVehContrib="10" flow="1200.00" occupancy="23.26" speed="11.18" harmonicMeanSpeed="11.18" length="7.80" nVehEntered="10"/>
    <interval begin="30.00" end="60.00" id="od1_1" nVehContrib="1" flow="120.00" occupancy="1.49" speed="11.18" harmonicMeanSpeed="11.18" length="5.00" nVehEntered="1"/>
    <interval begin="30.00" end="60.00" id="od1_2" nVehContrib="13" flow="1560.00" occupancy="25.31" speed="10.84" harmonicMeanSpeed="10.81" length="6.31" nVehEntered="13"/>
    <interval begin="30.00" end="60.00" id="od2_0" nVehContrib="3" flow="360.00" occupancy="5.37" speed="11.18" harmonicMeanSpeed="11.18" length="6.00" nVehEntered="3"/>
    <interval begin="30.00" end="60.00" id="od2_1" nVehContrib="1" flow="120.00" occupancy="2.39" speed="11.18" harmonicMeanSpeed="11.18" length="8.00" nVehEntered="1"/>
    <interval begin="30.00" end="60.00" id="od2_2" nVehContrib="14" flow="1680.00" occupancy="34.55" speed="9.92" harmonicMeanSpeed="9.09" length="6.79" nVehEntered="14"/>
    <interval begin="30.00" end="60.00" id="od3_0" nVehContrib="4" flow="480.00" occupancy="8.05" speed="11.18" harmonicMeanSpeed="11.18" length="6.75" nVehEntered="4"/>
    <interval begin="30.00" end="60.00" id="od3_1" nVehContrib="1" flow="120.00" occupancy="1.49" speed="11.18" harmonicMeanSpeed="11.18" length="5.00" nVehEntered="1"/>
    <interval begin="30.00" end="60.00" id="od3_2" nVehContrib="13" flow="1560.00" occupancy="41.87" speed="9.39" harmonicMeanSpeed="7.90" length="7.38" nVehEntered="13"/>
    <interval begin="30.00" end="60.00" id="od4_0" nVehContrib="10" flow="1200.00" occupancy="19.98" speed="11.18" harmonicMeanSpeed="11.18" length="6.70" nVehEntered="10"/>
    <interval begin="30.00" end="60.00" id="od4_1" nVehContrib="1" flow="120.00" occupancy="2.68" speed="11.18" harmonicMeanSpeed="11.18" length="9.00" nVehEntered="1"/>
    <interval begin="30.00" end="60.00" id="od4_2" nVehContrib="13" flow="1560.00" occupancy="21.87" speed="11.10" harmonicMeanSpeed="11.09" length="6.08" nVehEntered="12"/>
    <interval begin="30.00" end="60.00" id="ood1_0" nVehContrib="10" flow="1200.00" occupancy="23.26" speed="11.18" harmonicMeanSpeed="11.18" length="7.80" nVehEntered="10"/>
    <interval begin="30.00" end="60.00" id="ood1_1" nVehContrib="1" flow="120.00" occupancy="1.49" speed="11.18" harmonicMeanSpeed="11.18" length="5.00" nVehEntered="1"/>
    <interval begin="30.00" end="60.00" id="ood1_2" nVehContrib="13" flow="1560.00" occupancy="25.22" speed="11.12" harmonicMeanSpeed="11.11" length="6.31" nVehEntered="14"/>
    <interval begin="30.00" end="60.00" id="ood2_0" nVehContrib="4" flow="480.00" occupancy="8.05" speed="11.18" harmonicMeanSpeed="11.18" length="6.75" nVehEntered="4"/>
    <interval begin="30.00" end="60.00" id="ood2_1" nVehContrib="1" flow="120.00" occupancy="2.39" speed="11.18" harmonicMeanSpeed="11.18" length="8.00" nVehEntered="1"/>
    <interval begin="30.00" end="60.00" id="ood2_2" nVehContrib="14" flow="1680.00" occupancy="27.95" speed="11.10" harmonicMeanSpeed="11.10" length="6.64" nVehEntered="14"/>
    <interval begin="30.00" end="60.00" id="ood3_0" nVehContrib="4" flow="480.00" occupancy="8.05" speed="11.18" harmonicMeanSpeed="11.18" length="6.75" nVehEntered="4"/>
    <interval begin="30.00" end="60.00" id="ood3_1" nVehContrib="1" flow="120.00" occupancy="1.49" speed="11.18" harmonicMeanSpeed="11.18" length="5.00" nVehEntered="1"/>
    <interval begin="30.00" end="60.00" id="ood3_2" nVehContrib="14" flow="1680.00" occupancy="31.76" speed="10.74" harmonicMeanSpeed="10.65" length="7.21" nVehEntered="14"/>
    <interval begin="30.00" end="60.00" id="ood4_0" nVehContrib="10" flow="1200.00" occupancy="20.27" speed="11.18" harmonicMeanSpeed="11.18" length="6.80" nVehEntered="10"/>
    <interval begin="30.00" end="60.00" id="ood4_1" nVehContrib="1" flow="120.00" occupancy="2.68" speed="11.18" harmonicMeanSpeed="11.18" length="9.00" nVehEntered="1"/>
    <interval begin="30.00" end="60.00" id="ood4_2" nVehContrib="12" flow="1440.00" occupancy="20.65" speed="11.18" harmonicMeanSpeed="11.18" length="5.92" nVehEntered="11"/>
    <interval begin="30.00" end="60.00" id="oood1_0" nVehContrib="9" flow="1080.00" occupancy="22.21" speed="11.00" harmonicMeanSpeed="10.98" length="7.67" nVehEntered="10"/>
    <interval begin="30.00" end="60.00" id="oood1_1" nVehContrib="1" flow="120.00" occupancy="1.49" speed="11.18" harmonicMeanSpeed="11.18" length="5.00" nVehEntered="1"/>
    <interval begin="30.00" end="60.00" id="oood1_2" nVehContrib="14" flow="1680.00" occupancy="24.85" speed="11.03" harmonicMeanSpeed="11.03" length="6.29" nVehEntered="13"/>
    <interval begin="30.00" end="60.00" id="oood2_0" nVehContrib="4" flow="480.00" occupancy="8.09" speed="11.13" harmonicMeanSpeed="11.13" length="6.75" nVehEntered="4"/>
    <interval begin="30.00" end="60.00" id="oood2_1" nVehContrib="1" flow="120.00" occupancy="2.40" speed="11.12" harmonicMeanSpeed="11.12" length="8.00" nVehEntered="1"/>
    <interval begin="30.00" end="60.00" id="oood2_2" nVehContrib="14" flow="1680.00" occupancy="27.99" speed="11.07" harmonicMeanSpeed="11.07" length="6.64" nVehEntered="14"/>
    <interval begin="30.00" end="60.00" id="oood3_0" nVehContrib="3" flow="360.00" occupancy="7.98" speed="11.15" harmonicMeanSpeed="11.15" length="7.33" nVehEntered="4"/>
    <interval begin="30.00" end="60.00" id="oood3_1" nVehContrib="2" flow="240.00" occupancy="3.88" speed="11.18" harmonicMeanSpeed="11.18" length="6.50" nVehEntered="2"/>
    <interval begin="30.00" end="60.00" id="oood3_2" nVehContrib="14" flow="1680.00" occupancy="30.76" speed="10.97" harmonicMeanSpeed="10.96" length="7.21" nVehEntered="14"/>
    <interval begin="30.00" end="60.00" id="oood4_0" nVehContrib="10" flow="1200.00" occupancy="20.38" speed="11.12" harmonicMeanSpeed="11.12" length="6.80" nVehEntered="10"/>
    <interval begin="30.00" end="60.00" id="oood4_1" nVehContrib="1" flow="120.00" occupancy="2.68" speed="11.18" harmonicMeanSpeed="11.18" length="9.00" nVehEntered="1"/>
    <interval begin="30.00" end="60.00" id="oood4_2" nVehContrib="10" flow="1200.00" occupancy="18.02" speed="11.10" harmonicMeanSpeed="11.10" length="6.00" nVehEntered="10"/>
    <interval begin="30.00" end="60.00" id="ooood1_0" nVehContrib="7" flow="840.00" occupancy="36.93" speed="7.31" harmonicMeanSpeed="5.81" length="7.57" nVehEntered="10"/>
    <interval begin="30.00" end="60.00" id="ooood1_1" nVehContrib="8" flow="960.00" occupancy="36.46" speed="7.96" harmonicMeanSpeed="5.34" length="7.63" nVehEntered="14"/>
    <interval begin="30.00" end="60.00" id="ooood1_2" nVehContrib="8" flow="960.00" occupancy="42.17" speed="5.32" harmonicMeanSpeed="3.94" length="6.50" nVehEntered="10"/>
    <interval begin="30.00" end="60.00" id="ooood2_0" nVehContrib="10" flow="1200.00" occupancy="29.75" speed="9.58" harmonicMeanSpeed="7.80" length="6.90" nVehEntered="13"/>
    <interval begin="30.00" end="60.00" id="ooood2_1" nVehContrib="7" flow="840.00" occupancy="43.23" speed="13.71" harmonicMeanSpeed="3.69" length="6.43" nVehEntered="10"/>
    <interval begin="30.00" end="60.00" id="ooood2_2" nVehContrib="3" flow="360.00" occupancy="7.66" speed="6.48" harmonicMeanSpeed="5.08" length="7.33" nVehEntered="4"/>
    <interval begin="30.00" end="60.00" id="ooood3_0" nVehContrib="6" flow="720.00" occupancy="17.59" speed="9.37" harmonicMeanSpeed="8.38" length="6.83" nVehEntered="10"/>
    <interval begin="30.00" end="60.00" id="ooood3_1" nVehContrib="6" flow="720.00" occupancy="43.41" speed="7.11" harmonicMeanSpeed="3.54" length="7.17" nVehEntered="11"/>
    <interval begin="30.00" end="60.00" id="ooood3_2" nVehContrib="6" flow="720.00" occupancy="42.45" speed="5.29" harmonicMeanSpeed="2.89" length="7.17" nVehEntered="6"/>
    <interval begin="30.00" end="60.00" id="ooood4_0" nVehContrib="8" flow="960.00" occupancy="30.39" speed="7.21" harmonicMeanSpeed="5.18" length="6.25" nVehEntered="8"/>
    <interval begin="30.00" end="60.00" id="ooood4_1" nVehContrib="5" flow="600.00" occupancy="23.99" speed="14.11" harmonicMeanSpeed="4.32" length="7.20" nVehEntered="10"/>
    <interval begin="30.00" end="60.00" id="ooood4_2" nVehContrib="9" flow="1080.00" occupancy="41.29" speed="6.10" harmonicMeanSpeed="4.59" length="7.00" nVehEntered="11"/>
    <interval begin="60.00" end="90.00" id="d1_0" nVehContrib="6" flow="720.00" occupancy="11.33" speed="11.18" harmonicMeanSpeed="11.18" length="6.33" nVehEntered="6"/>
    <interval begin="60.00" end="90.00" id="d1_1" nVehContrib="1" flow="120.00" occupancy="2.41" speed="11.18" harmonicMeanSpeed="11.18" length="5.00" nVehEntered="2"/>
    <interval begin="60.00" end="90.00" id="d1_2" nVehContrib="10" flow="1200.00" occupancy="45.97" speed="8.42" harmonicMeanSpeed="5.60" length="7.00" nVehEntered="10"/>
    <interval begin="60.00" end="90.00" id="d2_0" nVehContrib="11" flow="1320.00" occupancy="20.87" speed="11.18" harmonicMeanSpeed="11.18" length="6.36" nVehEntered="11"/>
    <interval begin="60.00" end="90.00" id="d2_1" nVehContrib="4" flow="480.00" occupancy="9.06" speed="10.50" harmonicMeanSpeed="10.40" length="7.00" nVehEntered="4"/>
    <interval begin="60.00" end="90.00" id="d2_2" nVehContrib="10" flow="1200.00" occupancy="73.62" speed="5.39" harmonicMeanSpeed="2.96" length="7.00" nVehEntered="9"/>
    <interval begin="60.00" end="90.00" id="d3_0" nVehContrib="7" flow="840.00" occupancy="28.45" speed="11.09" harmonicMeanSpeed="11.09" length="7.43" nVehEntered="8"/>
    <interval begin="60.00" end="90.00" id="d3_1" nVehContrib="1" flow="120.00" occupancy="2.39" speed="11.18" harmonicMeanSpeed="11.18" length="8.00" nVehEntered="1"/>
    <interval begin="60.00" end="90.00" id="d3_2" nVehContrib="10" flow="1200.00" occupancy="60.10" speed="5.91" harmonicMeanSpeed="3.84" length="6.60" nVehEntered="10"/>
    <interval begin="60.00" end="90.00" id="d4_0" nVehContrib="9" flow="1080.00" occupancy="71.23" speed="9.74" harmonicMeanSpeed="5.57" length="6.89" nVehEntered="10"/>
    <interval begin="60.00" end="90.00" id="d4_1" nVehContrib="1" flow="120.00" occupancy="1.79" speed="11.18" harmonicMeanSpeed="11.18" length="6.00" nVehEntered="1"/>
    <interval begin="60.00" end="90.00" id="d4_2" nVehContrib="5" flow="600.00" occupancy="11.59" speed="9.77" harmonicMeanSpeed="9.52" length="6.80" nVehEntered="5"/>
    <interval begin="60.00" end="90.00" id="od1_0" nVehContrib="6" flow="720.00" occupancy="11.33" speed="11.18" harmonicMeanSpeed="11.18" length="6.33" nVehEntered="6"/>
    <interval begin="60.00" end="90.00" id="od1_1" nVehContrib="3" flow="360.00" occupancy="5.07" speed="11.18" harmonicMeanSpeed="11.18" length="5.67" nVehEntered="3"/>
    <interval begin="60.00" end="90.00" id="od1_2" nVehContrib="11" flow="1320.00" occupancy="76.31" speed="6.42" harmonicMeanSpeed="3.35" length="7.09" nVehEntered="11"/>
    <interval begin="60.00" end="90.00" id="od2_0" nVehContrib="11" flow="1320.00" occupancy="21.77" speed="11.18" harmonicMeanSpeed="11.18" length="6.64" nVehEntered="11"/>
    <interval begin="60.00" end="90.00" id="od2_1" nVehContrib="4" flow="480.00" occupancy="8.35" speed="11.18" harmonicMeanSpeed="11.18" length="7.00" nVehEntered="4"/>
    <interval begin="60.00" end="90.00" id="od2_2" nVehContrib="10" flow="1200.00" occupancy="72.78" speed="5.27" harmonicMeanSpeed="3.35" length="7.50" nVehEntered="10"/>
    <interval begin="60.00" end="90.00" id="od3_0" nVehContrib="8" flow="960.00" occupancy="17.70" speed="11.11" harmonicMeanSpeed="11.11" length="7.38" nVehEntered="8"/>
    <interval begin="60.00" end="90.00" id="od3_1" nVehContrib="1" flow="120.00" occupancy="2.39" speed="11.18" harmonicMeanSpeed="11.18" length="8.00" nVehEntered="1"/>
    <interval begin="60.00" end="90.00" id="od3_2" nVehContrib="10" flow="1200.00" occupancy="55.52" speed="5.37" harmonicMeanSpeed="4.13" length="6.50" nVehEntered="10"/>
    <interval begin="60.00" end="90.00" id="od4_0" nVehContrib="10" flow="1200.00" occupancy="60.91" speed="10.14" harmonicMeanSpeed="8.20" length="7.10" nVehEntered="11"/>
    <interval begin="60.00" end="90.00" id="od4_1" nVehContrib="2" flow="240.00" occupancy="3.28" speed="11.18" harmonicMeanSpeed="11.18" length="5.50" nVehEntered="2"/>
    <interval begin="60.00" end="90.00" id="od4_2" nVehContrib="6" flow="720.00" occupancy="36.84" speed="10.90" harmonicMeanSpeed="10.86" length="7.33" nVehEntered="7"/>
    <interval begin="60.00" end="90.00" id="ood1_0" nVehContrib="5" flow="600.00" occupancy="8.65" speed="11.18" harmonicMeanSpeed="11.18" length="5.80" nVehEntered="5"/>
    <interval begin="60.00" end="90.00" id="ood1_1" nVehContrib="3" flow="360.00" occupancy="5.07" speed="11.18" harmonicMeanSpeed="11.18" length="5.67" nVehEntered="3"/>
    <interval begin="60.00" end="90.00" id="ood1_2" nVehContrib="12" flow="1440.00" occupancy="52.92" speed="7.64" harmonicMeanSpeed="5.53" length="6.83" nVehEntered="12"/>
    <interval begin="60.00" end="90.00" id="ood2_0" nVehContrib="10" flow="1200.00" occupancy="19.08" speed="11.18" harmonicMeanSpeed="11.18" length="6.40" nVehEntered="10"/>
    <interval begin="60.00" end="90.00" id="ood2_1" nVehContrib="4" flow="480.00" occupancy="8.35" speed="11.18" harmonicMeanSpeed="11.18" length="7.00" nVehEntered="4"/>
    <interval begin="60.00" end="90.00" id="ood2_2" nVehContrib="11" flow="1320.00" occupancy="52.46" speed="8.01" harmonicMeanSpeed="6.37" length="7.45" nVehEntered="12"/>
    <interval begin="60.00" end="90.00" id="ood3_0" nVehContrib="8" flow="960.00" occupancy="17.59" speed="11.18" harmonicMeanSpeed="11.18" length="7.38" nVehEntered="8"/>
    <interval begin="60.00" end="90.00" id="ood3_1" nVehContrib="1" flow="120.00" occupancy="4.87" speed="11.18" harmonicMeanSpeed="11.18" length="8.00" nVehEntered="2"/>
    <interval begin="60.00" end="90.00" id="ood3_2" nVehContrib="10" flow="1200.00" occupancy="42.73" speed="8.87" harmonicMeanSpeed="7.59" length="6.70" nVehEntered="11"/>
    <interval begin="60.00" end="90.00" id="ood4_0" nVehContrib="12" flow="1440.00" occupancy="27.68" speed="10.66" harmonicMeanSpeed="10.51" length="7.25" nVehEntered="12"/>
    <interval begin="60.00" end="90.00" id="ood4_1" nVehContrib="2" flow="240.00" occupancy="3.28" speed="11.18" harmonicMeanSpeed="11.18" length="5.50" nVehEntered="2"/>
    <interval begin="60.00" end="90.00" id="ood4_2" nVehContrib="8" flow="960.00" occupancy="18.34" speed="11.11" harmonicMeanSpeed="11.10" length="7.63" nVehEntered="8"/>
    <interval begin="60.00" end="90.00" id="oood1_0" nVehContrib="5" flow="600.00" occupancy="7.29" speed="11.16" harmonicMeanSpeed="11.16" length="5.80" nVehEntered="4"/>
    <interval begin="60.00" end="90.00" id="oood1_1" nVehContrib="3" flow="360.00" occupancy="6.08" speed="11.12" harmonicMeanSpeed="11.12" length="5.67" nVehEntered="4"/>
    <interval begin="60.00" end="90.00" id="oood1_2" nVehContrib="13" flow="1560.00" occupancy="32.72" speed="9.38" harmonicMeanSpeed="8.82" length="6.92" nVehEntered="13"/>
    <interval begin="60.00" end="90.00" id="oood2_0" nVehContrib="10" flow="1200.00" occupancy="19.23" speed="11.09" harmonicMeanSpeed="11.09" length="6.40" nVehEntered="10"/>
    <interval begin="60.00" end="90.00" id="oood2_1" nVehContrib="4" flow="480.00" occupancy="8.37" speed="11.15" harmonicMeanSpeed="11.15" length="7.00" nVehEntered="4"/>
    <interval begin="60.00" end="90.00" id="oood2_2" nVehContrib="12" flow="1440.00" occupancy="34.37" speed="9.40" harmonicMeanSpeed="8.99" length="7.67" nVehEntered="12"/>
    <interval begin="60.00" end="90.00" id="oood3_0" nVehContrib="8" flow="960.00" occupancy="17.70" speed="11.16" harmonicMeanSpeed="11.16" length="7.38" nVehEntered="8"/>
    <interval begin="60.00" end="90.00" id="oood3_1" nVehContrib="1" flow="120.00" occupancy="2.68" speed="11.18" harmonicMeanSpeed="11.18" length="9.00" nVehEntered="1"/>
    <interval begin="60.00" end="90.00" id="oood3_2" nVehContrib="11" flow="1320.00" occupancy="22.91" speed="10.92" harmonicMeanSpeed="10.90" length="6.82" nVehEntered="11"/>
    <interval begin="60.00" end="90.00" id="oood4_0" nVehContrib="13" flow="1560.00" occupancy="28.71" speed="10.89" harmonicMeanSpeed="10.86" length="7.08" nVehEntered="14"/>
    <interval begin="60.00" end="90.00" id="oood4_1" nVehContrib="2" flow="240.00" occupancy="3.28" speed="11.16" harmonicMeanSpeed="11.16" length="5.50" nVehEntered="2"/>
    <interval begin="60.00" end="90.00" id="oood4_2" nVehContrib="8" flow="960.00" occupancy="18.27" speed="11.13" harmonicMeanSpeed="11.13" length="7.63" nVehEntered="8"/>