<?xml version="1.0" encoding="UTF-8"?>

<!-- generated on 03/24/20 20:10:04 by Eclipse SUMO GUI Version 1.3.1
<configuration xmlns:xsi="http://www.w3.org/2001/XMLSchema-instance" xsi:noNamespaceSchemaLocation="http://sumo.dlr.de/xsd/sumoConfiguration.xsd">

    <input>
        <net-file value="data/lane3.net.xml"/>
        <route-files value="data/icacc+.rou.xml"/>
        <additional-files value="data/icacc+.det.xml"/>
    </input>

    <output>
        <tripinfo-output value="tripinfo.xml"/>
    </output>

    <time>
        <begin value="0"/>
        <step-length value="0.1"/>
    </time>

    <processing>
        <collision.mingap-factor value="0"/>
    </processing>

    <report>
        <verbose value="true"/>
        <no-step-log value="true"/>
    </report>

    <traci_server>
        <remote-port value="14100"/>
    </traci_server>

    <gui_only>
        <start value="true"/>
        <tracker-interval value="0.1"/>
    </gui_only>

</configuration>
-->

<detector xmlns:xsi="http://www.w3.org/2001/XMLSchema-instance" xsi:noNamespaceSchemaLocation="http://sumo.dlr.de/xsd/det_e1_file.xsd">
    <interval begin="0.00" end="30.00" id="d1_0" nVehContrib="3" flow="360.00" occupancy="6.61" speed="11.18" harmonicMeanSpeed="11.18" length="7.00" nVehEntered="4"/>
    <interval begin="0.00" end="30.00" id="d1_1" nVehContrib="3" flow="360.00" occupancy="7.45" speed="11.18" harmonicMeanSpeed="11.18" length="8.33" nVehEntered="3"/>
    <interval begin="0.00" end="30.00" id="d1_2" nVehContrib="5" flow="600.00" occupancy="10.14" speed="11.18" harmonicMeanSpeed="11.18" length="6.80" nVehEntered="5"/>
    <interval begin="0.00" end="30.00" id="d2_0" nVehContrib="5" flow="600.00" occupancy="10.73" speed="11.18" harmonicMeanSpeed="11.18" length="7.20" nVehEntered="5"/>
    <interval begin="0.00" end="30.00" id="d2_1" nVehContrib="3" flow="360.00" occupancy="6.26" speed="11.18" harmonicMeanSpeed="11.18" length="7.00" nVehEntered="3"/>
    <interval begin="0.00" end="30.00" id="d2_2" nVehContrib="4" flow="480.00" occupancy="9.55" speed="11.16" harmonicMeanSpeed="11.16" length="8.00" nVehEntered="4"/>
    <interval begin="0.00" end="30.00" id="d3_0" nVehContrib="2" flow="240.00" occupancy="3.88" speed="11.18" harmonicMeanSpeed="11.18" length="6.50" nVehEntered="2"/>
    <interval begin="0.00" end="30.00" id="d3_1" nVehContrib="1" flow="120.00" occupancy="1.49" speed="11.18" harmonicMeanSpeed="11.18" length="5.00" nVehEntered="1"/>
    <interval begin="0.00" end="30.00" id="d3_2" nVehContrib="7" flow="840.00" occupancy="14.86" speed="10.77" harmonicMeanSpeed="10.69" length="6.71" nVehEntered="7"/>
    <interval begin="0.00" end="30.00" id="d4_0" nVehContrib="5" flow="600.00" occupancy="10.84" speed="11.18" harmonicMeanSpeed="11.18" length="7.20" nVehEntered="6"/>
    <interval begin="0.00" end="30.00" id="d4_1" nVehContrib="2" flow="240.00" occupancy="3.28" speed="11.18" harmonicMeanSpeed="11.18" length="5.50" nVehEntered="2"/>
    <interval begin="0.00" end="30.00" id="d4_2" nVehContrib="4" flow="480.00" occupancy="7.22" speed="11.09" harmonicMeanSpeed="11.09" length="6.00" nVehEntered="4"/>
    <interval begin="0.00" end="30.00" id="od1_0" nVehContrib="4" flow="480.00" occupancy="10.15" speed="11.18" harmonicMeanSpeed="11.18" length="7.00" nVehEntered="5"/>
    <interval begin="0.00" end="30.00" id="od1_1" nVehContrib="3" flow="360.00" occupancy="7.45" speed="11.18" harmonicMeanSpeed="11.18" length="8.33" nVehEntered="3"/>
    <interval begin="0.00" end="30.00" id="od1_2" nVehContrib="6" flow="720.00" occupancy="11.63" speed="11.18" harmonicMeanSpeed="11.18" length="6.50" nVehEntered="6"/>
    <interval begin="0.00" end="30.00" id="od2_0" nVehContrib="5" flow="600.00" occupancy="10.73" speed="11.18" harmonicMeanSpeed="11.18" length="7.20" nVehEntered="5"/>
    <interval begin="0.00" end="30.00" id="od2_1" nVehContrib="3" flow="360.00" occupancy="6.26" speed="11.18" harmonicMeanSpeed="11.18" length="7.00" nVehEntered="3"/>
    <interval begin="0.00" end="30.00" id="od2_2" nVehContrib="5" flow="600.00" occupancy="12.22" speed="11.18" harmonicMeanSpeed="11.18" length="8.20" nVehEntered="5"/>
    <interval begin="0.00" end="30.00" id="od3_0" nVehContrib="2" flow="240.00" occupancy="3.88" speed="11.18" harmonicMeanSpeed="11.18" length="6.50" nVehEntered="2"/>
    <interval begin="0.00" end="30.00" id="od3_1" nVehContrib="2" flow="240.00" occupancy="2.98" speed="11.18" harmonicMeanSpeed="11.18" length="5.00" nVehEntered="2"/>
    <interval begin="0.00" end="30.00" id="od3_2" nVehContrib="8" flow="960.00" occupancy="15.50" speed="11.18" harmonicMeanSpeed="11.18" length="6.50" nVehEntered="8"/>
    <interval begin="0.00" end="30.00" id="od4_0" nVehContrib="6" flow="720.00" occupancy="12.22" speed="11.18" harmonicMeanSpeed="11.18" length="6.83" nVehEntered="6"/>
    <interval begin="0.00" end="30.00" id="od4_1" nVehContrib="3" flow="360.00" occupancy="5.51" speed="11.18" harmonicMeanSpeed="11.18" length="5.67" nVehEntered="4"/>
    <interval begin="0.00" end="30.00" id="od4_2" nVehContrib="5" flow="600.00" occupancy="8.65" speed="11.18" harmonicMeanSpeed="11.18" length="5.80" nVehEntered="5"/>
    <interval begin="0.00" end="30.00" id="ood1_0" nVehContrib="5" flow="600.00" occupancy="13.70" speed="11.18" harmonicMeanSpeed="11.18" length="7.40" nVehEntered="6"/>
    <interval begin="0.00" end="30.00" id="ood1_1" nVehContrib="3" flow="360.00" occupancy="7.45" speed="11.18" harmonicMeanSpeed="11.18" length="8.33" nVehEntered="3"/>
    <interval begin="0.00" end="30.00" id="ood1_2" nVehContrib="7" flow="840.00" occupancy="14.31" speed="11.18" harmonicMeanSpeed="11.18" length="6.86" nVehEntered="7"/>
    <interval begin="0.00" end="30.00" id="ood2_0" nVehContrib="6" flow="720.00" occupancy="13.12" speed="11.18" harmonicMeanSpeed="11.18" length="7.33" nVehEntered="6"/>
    <interval begin="0.00" end="30.00" id="ood2_1" nVehContrib="4" flow="480.00" occupancy="7.75" speed="11.18" harmonicMeanSpeed="11.18" length="6.50" nVehEntered="4"/>
    <interval begin="0.00" end="30.00" id="ood2_2" nVehContrib="5" flow="600.00" occupancy="13.72" speed="11.18" harmonicMeanSpeed="11.18" length="8.20" nVehEntered="6"/>
    <interval begin="0.00" end="30.00" id="ood3_0" nVehContrib="2" flow="240.00" occupancy="3.88" speed="11.18" harmonicMeanSpeed="11.18" length="6.50" nVehEntered="2"/>
    <interval begin="0.00" end="30.00" id="ood3_1" nVehContrib="3" flow="360.00" occupancy="5.37" speed="11.18" harmonicMeanSpeed="11.18" length="6.00" nVehEntered="3"/>
    <interval begin="0.00" end="30.00" id="ood3_2" nVehContrib="9" flow="1080.00" occupancy="17.89" speed="11.18" harmonicMeanSpeed="11.18" length="6.67" nVehEntered="9"/>
    <interval begin="0.00" end="30.00" id="ood4_0" nVehContrib="6" flow="720.00" occupancy="12.22" speed="11.18" harmonicMeanSpeed="11.18" length="6.83" nVehEntered="6"/>
    <interval begin="0.00" end="30.00" id="ood4_1" nVehContrib="4" flow="480.00" occupancy="7.45" speed="11.18" harmonicMeanSpeed="11.18" length="6.25" nVehEntered="4"/>
    <interval begin="0.00" end="30.00" id="ood4_2" nVehContrib="6" flow="720.00" occupancy="11.03" speed="11.18" harmonicMeanSpeed="11.18" length="6.17" nVehEntered="6"/>
    <interval begin="0.00" end="30.00" id="oood1_0" nVehContrib="6" flow="720.00" occupancy="13.76" speed="11.14" harmonicMeanSpeed="11.14" length="7.67" nVehEntered="6"/>
    <interval begin="0.00" end="30.00" id="oood1_1" nVehContrib="4" flow="480.00" occupancy="10.17" speed="11.14" harmonicMeanSpeed="11.14" length="8.50" nVehEntered="4"/>
    <interval begin="0.00" end="30.00" id="oood1_2" nVehContrib="8" flow="960.00" occupancy="16.43" speed="11.16" harmonicMeanSpeed="11.16" length="6.88" nVehEntered="8"/>
    <interval begin="0.00" end="30.00" id="oood2_0" nVehContrib="6" flow="720.00" occupancy="13.15" speed="11.15" harmonicMeanSpeed="11.15" length="7.33" nVehEntered="6"/>
    <interval begin="0.00" end="30.00" id="oood2_1" nVehContrib="5" flow="600.00" occupancy="9.26" speed="11.15" harmonicMeanSpeed="11.15" length="6.20" nVehEntered="5"/>
    <interval begin="0.00" end="30.00" id="oood2_2" nVehContrib="6" flow="720.00" occupancy="14.94" speed="11.16" harmonicMeanSpeed="11.16" length="8.33" nVehEntered="6"/>
    <interval begin="0.00" end="30.00" id="oood3_0" nVehContrib="2" flow="240.00" occupancy="6.12" speed="11.17" harmonicMeanSpeed="11.17" length="6.50" nVehEntered="3"/>
    <interval begin="0.00" end="30.00" id="oood3_1" nVehContrib="3" flow="360.00" occupancy="5.37" speed="11.18" harmonicMeanSpeed="11.18" length="6.00" nVehEntered="3"/>
    <interval begin="0.00" end="30.00" id="oood3_2" nVehContrib="9" flow="1080.00" occupancy="17.94" speed="11.15" harmonicMeanSpeed="11.15" length="6.67" nVehEntered="9"/>
    <interval begin="0.00" end="30.00" id="oood4_0" nVehContrib="6" flow="720.00" occupancy="12.25" speed="11.15" harmonicMeanSpeed="11.15" length="6.83" nVehEntered="6"/>
    <interval begin="0.00" end="30.00" id="oood4_1" nVehContrib="4" flow="480.00" occupancy="7.46" speed="11.17" harmonicMeanSpeed="11.17" length="6.25" nVehEntered="4"/>
    <interval begin="0.00" end="30.00" id="oood4_2" nVehContrib="7" flow="840.00" occupancy="13.43" speed="11.17" harmonicMeanSpeed="11.17" length="6.43" nVehEntered="7"/>
    <interval begin="0.00" end="30.00" id="ooood1_0" nVehContrib="7" flow="840.00" occupancy="22.58" speed="13.80" harmonicMeanSpeed="6.60" length="6.71" nVehEntered="10"/>
    <interval begin="0.00" end="30.00" id="ooood1_1" nVehContrib="8" flow="960.00" occupancy="33.48" speed="7.80" harmonicMeanSpeed="5.37" length="7.50" nVehEntered="13"/>
    <interval begin="0.00" end="30.00" id="ooood1_2" nVehContrib="9" flow="1080.00" occupancy="45.66" speed="10.03" harmonicMeanSpeed="5.13" length="6.89" nVehEntered="11"/>
    <interval begin="0.00" end="30.00" id="ooood2_0" nVehContrib="8" flow="960.00" occupancy="26.73" speed="12.77" harmonicMeanSpeed="7.54" length="7.75" nVehEntered="12"/>
    <interval begin="0.00" end="30.00" id="ooood2_1" nVehContrib="10" flow="1200.00" occupancy="36.38" speed="16.29" harmonicMeanSpeed="5.21" length="6.50" nVehEntered="11"/>
    <interval begin="0.00" end="30.00" id="ooood2_2" nVehContrib="5" flow="600.00" occupancy="23.57" speed="8.55" harmonicMeanSpeed="6.20" length="7.40" nVehEntered="9"/>
    <interval begin="0.00" end="30.00" id="ooood3_0" nVehContrib="8" flow="960.00" occupancy="28.92" speed="11.39" harmonicMeanSpeed="5.35" length="6.00" nVehEntered="11"/>
    <interval begin="0.00" end="30.00" id="ooood3_1" nVehContrib="4" flow="480.00" occupancy="53.21" speed="4.87" harmonicMeanSpeed="2.22" length="7.00" nVehEntered="7"/>
    <interval begin="0.00" end="30.00" id="ooood3_2" nVehContrib="9" flow="1080.00" occupancy="36.08" speed="9.44" harmonicMeanSpeed="6.23" length="7.11" nVehEntered="9"/>
    <interval begin="0.00" end="30.00" id="ooood4_0" nVehContrib="4" flow="480.00" occupancy="18.34" speed="6.85" harmonicMeanSpeed="6.62" length="6.00" nVehEntered="9"/>
    <interval begin="0.00" end="30.00" id="ooood4_1" nVehContrib="7" flow="840.00" occupancy="22.91" speed="10.70" harmonicMeanSpeed="7.61" length="6.57" nVehEntered="11"/>
    <interval begin="0.00" end="30.00" id="ooood4_2" nVehContrib="12" flow="1440.00" occupancy="39.20" speed="17.00" harmonicMeanSpeed="9.22" length="6.58" nVehEntered="14"/>
    <interval begin="30.00" end="60.00" id="d1_0" nVehContrib="7" flow="840.00" occupancy="28.20" speed="10.14" harmonicMeanSpeed="9.39" length="7.14" nVehEntered="7"/>
    <interval begin="30.00" end="60.00" id="d1_1" nVehContrib="5" flow="600.00" occupancy="11.66" speed="10.59" harmonicMeanSpeed="10.46" length="7.40" nVehEntered="5"/>
    <interval begin="30.00" end="60.00" id="d1_2" nVehContrib="10" flow="1200.00" occupancy="60.87" speed="6.74" harmonicMeanSpeed="3.44" length="6.20" nVehEntered="11"/>
    <interval begin="30.00" end="60.00" id="d2_0" nVehContrib="5" flow="600.00" occupancy="10.39" speed="10.91" harmonicMeanSpeed="10.88" length="6.80" nVehEntered="5"/>
    <interval begin="30.00" end="60.00" id="d2_1" nVehContrib="7" flow="840.00" occupancy="14.62" speed="10.25" harmonicMeanSpeed="10.09" length="6.29" nVehEntered="7"/>
    <interval begin="30.00" end="60.00" id="d2_2" nVehContrib="6" flow="720.00" occupancy="27.19" speed="9.17" harmonicMeanSpeed="8.16" length="8.50" nVehEntered="7"/>
    <interval begin="30.00" end="60.00" id="d3_0" nVehContrib="4" flow="480.00" occupancy="9.24" speed="11.18" harmonicMeanSpeed="11.18" length="7.75" nVehEntered="4"/>
    <interval begin="30.00" end="60.00" id="d3_1" nVehContrib="6" flow="720.00" occupancy="12.29" speed="10.63" harmonicMeanSpeed="10.56" length="6.50" nVehEntered="6"/>
    <interval begin="30.00" end="60.00" id="d3_2" nVehContrib="6" flow="720.00" occupancy="43.67" speed="9.24" harmonicMeanSpeed="5.84" length="6.17" nVehEntered="7"/>
    <interval begin="30.00" end="60.00" id="d4_0" nVehContrib="5" flow="600.00" occupancy="9.13" speed="11.18" harmonicMeanSpeed="11.18" length="6.20" nVehEntered="4"/>
    <interval begin="30.00" end="60.00" id="d4_1" nVehContrib="9" flow="1080.00" occupancy="20.43" speed="10.43" harmonicMeanSpeed="10.27" length="7.00" nVehEntered="9"/>
    <interval begin="30.00" end="60.00" id="d4_2" nVehContrib="8" flow="960.00" occupancy="37.26" speed="6.54" harmonicMeanSpeed="4.16" length="6.13" nVehEntered="8"/>
    <interval begin="30.00" end="60.00" id="od1_0" nVehContrib="8" flow="960.00" occupancy="16.44" speed="11.01" harmonicMeanSpeed="11.00" length="7.50" nVehEntered="7"/>
    <interval begin="30.00" end="60.00" id="od1_1" nVehContrib="7" flow="840.00" occupancy="14.95" speed="11.15" harmonicMeanSpeed="11.15" length="7.14" nVehEntered="7"/>
    <interval begin="30.00" end="60.00" id="od1_2" nVehContrib="10" flow="1200.00" occupancy="26.34" speed="9.35" harmonicMeanSpeed="7.65" length="6.40" nVehEntered="10"/>
    <interval begin="30.00" end="60.00" id="od2_0" nVehContrib="5" flow="600.00" occupancy="10.14" speed="11.18" harmonicMeanSpeed="11.18" length="6.80" nVehEntered="5"/>
    <interval begin="30.00" end="60.00" id="od2_1" nVehContrib="8" flow="960.00" occupancy="15.25" speed="11.16" harmonicMeanSpeed="11.16" length="6.38" nVehEntered="8"/>
    <interval begin="30.00" end="60.00" id="od2_2" nVehContrib="7" flow="840.00" occupancy="17.41" speed="11.18" harmonicMeanSpeed="11.18" length="7.71" nVehEntered="8"/>
    <interval begin="30.00" end="60.00" id="od3_0" nVehContrib="4" flow="480.00" occupancy="9.24" speed="11.18" harmonicMeanSpeed="11.18" length="7.75" nVehEntered="4"/>
    <interval begin="30.00" end="60.00" id="od3_1" nVehContrib="6" flow="720.00" occupancy="12.82" speed="11.18" harmonicMeanSpeed="11.18" length="7.17" nVehEntered="6"/>
    <interval begin="30.00" end="60.00" id="od3_2" nVehContrib="8" flow="960.00" occupancy="18.09" speed="10.25" harmonicMeanSpeed="9.32" length="6.50" nVehEntered="9"/>
    <interval begin="30.00" end="60.00" id="od4_0" nVehContrib="4" flow="480.00" occupancy="8.97" speed="11.18" harmonicMeanSpeed="11.18" length="6.50" nVehEntered="5"/>
    <interval begin="30.00" end="60.00" id="od4_1" nVehContrib="8" flow="960.00" occupancy="18.80" speed="11.18" harmonicMeanSpeed="11.18" length="7.13" nVehEntered="8"/>
    <interval begin="30.00" end="60.00" id="od4_2" nVehContrib="7" flow="840.00" occupancy="13.16" speed="11.15" harmonicMeanSpeed="11.15" length="6.29" nVehEntered="7"/>
    <interval begin="30.00" end="60.00" id="ood1_0" nVehContrib="8" flow="960.00" occupancy="15.22" speed="11.18" harmonicMeanSpeed="11.18" length="7.50" nVehEntered="7"/>
    <interval begin="30.00" end="60.00" id="ood1_1" nVehContrib="7" flow="840.00" occupancy="14.91" speed="11.18" harmonicMeanSpeed="11.18" length="7.14" nVehEntered="7"/>
    <interval begin="30.00" end="60.00" id="ood1_2" nVehContrib="10" flow="1200.00" occupancy="19.19" speed="11.11" harmonicMeanSpeed="11.10" length="6.40" nVehEntered="10"/>
    <interval begin="30.00" end="60.00" id="ood2_0" nVehContrib="4" flow="480.00" occupancy="7.75" speed="11.18" harmonicMeanSpeed="11.18" length="6.50" nVehEntered="4"/>
    <interval begin="30.00" end="60.00" id="ood2_1" nVehContrib="7" flow="840.00" occupancy="13.71" speed="11.18" harmonicMeanSpeed="11.18" length="6.57" nVehEntered="7"/>
    <interval begin="30.00" end="60.00" id="ood2_2" nVehContrib="9" flow="1080.00" occupancy="19.22" speed="11.11" harmonicMeanSpeed="11.11" length="7.67" nVehEntered="8"/>
    <interval begin="30.00" end="60.00" id="ood3_0" nVehContrib="4" flow="480.00" occupancy="9.24" speed="11.18" harmonicMeanSpeed="11.18" length="7.75" nVehEntered="4"/>
    <interval begin="30.00" end="60.00" id="ood3_1" nVehContrib="5" flow="600.00" occupancy="10.44" speed="11.18" harmonicMeanSpeed="11.18" length="7.00" nVehEntered="5"/>
    <interval begin="30.00" end="60.00" id="ood3_2" nVehContrib="9" flow="1080.00" occupancy="16.40" speed="11.18" harmonicMeanSpeed="11.18" length="6.11" nVehEntered="9"/>
    <interval begin="30.00" end="60.00" id="ood4_0" nVehContrib="5" flow="600.00" occupancy="10.44" speed="11.18" harmonicMeanSpeed="11.18" length="7.00" nVehEntered="5"/>
    <interval begin="30.00" end="60.00" id="ood4_1" nVehContrib="8" flow="960.00" occupancy="18.84" speed="11.18" harmonicMeanSpeed="11.18" length="7.25" nVehEntered="9"/>
    <interval begin="30.00" end="60.00" id="ood4_2" nVehContrib="7" flow="840.00" occupancy="12.52" speed="11.18" harmonicMeanSpeed="11.18" length="6.00" nVehEntered="7"/>
    <interval begin="30.00" end="60.00" id="oood1_0" nVehContrib="7" flow="840.00" occupancy="15.26" speed="11.14" harmonicMeanSpeed="11.14" length="7.29" nVehEntered="7"/>
    <interval begin="30.00" end="60.00" id="oood1_1" nVehContrib="6" flow="720.00" occupancy="12.26" speed="11.15" harmonicMeanSpeed="11.15" length="6.83" nVehEntered="6"/>
    <interval begin="30.00" end="60.00" id="oood1_2" nVehContrib="10" flow="1200.00" occupancy="19.15" speed="11.14" harmonicMeanSpeed="11.14" length="6.40" nVehEntered="10"/>
    <interval begin="30.00" end="60.00" id="oood2_0" nVehContrib="4" flow="480.00" occupancy="7.78" speed="11.13" harmonicMeanSpeed="11.13" length="6.50" nVehEntered="4"/>
    <interval begin="30.00" end="60.00" id="oood2_1" nVehContrib="7" flow="840.00" occupancy="14.97" speed="11.13" harmonicMeanSpeed="11.13" length="7.14" nVehEntered="7"/>
    <interval begin="30.00" end="60.00" id="oood2_2" nVehContrib="9" flow="1080.00" occupancy="20.30" speed="10.99" harmonicMeanSpeed="10.98" length="7.44" nVehEntered="9"/>
    <interval begin="30.00" end="60.00" id="oood3_0" nVehContrib="4" flow="480.00" occupancy="7.03" speed="11.15" harmonicMeanSpeed="11.15" length="7.75" nVehEntered="3"/>
    <interval begin="30.00" end="60.00" id="oood3_1" nVehContrib="5" flow="600.00" occupancy="11.57" speed="11.10" harmonicMeanSpeed="11.10" length="7.00" nVehEntered="6"/>
    <interval begin="30.00" end="60.00" id="oood3_2" nVehContrib="10" flow="1200.00" occupancy="19.25" speed="11.08" harmonicMeanSpeed="11.08" length="6.40" nVehEntered="10"/>
    <interval begin="30.00" end="60.00" id="oood4_0" nVehContrib="6" flow="720.00" occupancy="12.19" speed="10.94" harmonicMeanSpeed="10.92" length="6.67" nVehEntered="6"/>
    <interval begin="30.00" end="60.00" id="oood4_1" nVehContrib="9" flow="1080.00" occupancy="19.91" speed="11.12" harmonicMeanSpeed="11.12" length="7.11" nVehEntered="10"/>
    <interval begin="30.00" end="60.00" id="oood4_2" nVehContrib="6" flow="720.00" occupancy="10.18" speed="11.14" harmonicMeanSpeed="11.14" length="5.67" nVehEntered="6"/>
    <interval begin="30.00" end="60.00" id="ooood1_0" nVehContrib="8" flow="960.00" occupancy="35.06" speed="7.83" harmonicMeanSpeed="6.20" length="7.50" nVehEntered="9"/>
    <interval begin="30.00" end="60.00" id="ooood1_1" nVehContrib="4" flow="480.00" occupancy="43.96" speed="3.54" harmonicMeanSpeed="2.59" length="6.50" nVehEntered="8"/>
    <interval begin="30.00" end="60.00" id="ooood1_2" nVehContrib="11" flow="1320.00" occupancy="32.76" speed="8.73" harmonicMeanSpeed="7.92" length="7.45" nVehEntered="11"/>
    <interval begin="30.00" end="60.00" id="ooood2_0" nVehContrib="8" flow="960.00" occupancy="52.63" speed="5.47" harmonicMeanSpeed="4.14" length="7.13" nVehEntered="11"/>
    <interval begin="30.00" end="60.00" id="ooood2_1" nVehContrib="5" flow="600.00" occupancy="31.26" speed="4.41" harmonicMeanSpeed="3.85" length="7.00" nVehEntered="10"/>
    <interval begin="30.00" end="60.00" id="ooood2_2" nVehContrib="7" flow="840.00" occupancy="28.39" speed="6.15" harmonicMeanSpeed="5.69" length="7.14" nVehEntered="7"/>
    <interval begin="30.00" end="60.00" id="ooood3_0" nVehContrib="9" flow="1080.00" occupancy="32.63" speed="8.83" harmonicMeanSpeed="5.62" length="6.78" nVehEntered="10"/>
    <interval begin="30.00" end="60.00" id="ooood3_1" nVehContrib="5" flow="600.00" occupancy="35.86" speed="4.64" harmonicMeanSpeed="2.31" length="7.80" nVehEntered="10"/>
    <interval begin="30.00" end="60.00" id="ooood3_2" nVehContrib="4" flow="480.00" occupancy="42.31" speed="9.31" harmonicMeanSpeed="3.27" length="5.50" nVehEntered="5"/>
    <interval begin="30.00" end="60.00" id="ooood4_0" nVehContrib="9" flow="1080.00" occupancy="24.10" speed="7.58" harmonicMeanSpeed="6.16" length="6.56" nVehEntered="11"/>
    <interval begin="30.00" end="60.00" id="ooood4_1" nVehContrib="5" flow="600.00" occupancy="38.28" speed="4.38" harmonicMeanSpeed="2.33" length="7.00" nVehEntered="6"/>
    <interval begin="30.00" end="60.00" id="ooood4_2" nVehContrib="9" flow="1080.00" occupancy="43.19" speed="6.94" harmonicMeanSpeed="4.15" length="7.33" nVehEntered="10"/>
    <interval begin="60.00" end="90.00" id="d1_0" nVehContrib="5" flow="600.00" occupancy="24.39" speed="8.67" harmonicMeanSpeed="4.06" length="7.40" nVehEntered="4"/>
    <interval begin="60.00" end="90.00" id="d1_1" nVehContrib="6" flow="720.00" occupancy="34.67" speed="8.16" harmonicMeanSpeed="6.52" length="6.50" nVehEntered="7"/>
    <interval begin="60.00" end="90.00" id="d1_2" nVehContrib="6" flow="720.00" occupancy="54.47" speed="6.13" harmonicMeanSpeed="2.97" length="7.67" nVehEntered="5"/>
    <interval begin="60.00" end="90.00" id="d2_0" nVehContrib="0" flow="0.00" occupancy="0.00" speed="-1.00" harmonicMeanSpeed="-1.00" length="-1.00" nVehEntered="0"/>
    <interval begin="60.00" end="90.00" id="d2_1" nVehContrib="6" flow="720.00" occupancy="47.73" speed="7.53" harmonicMeanSpeed="5.08" length="7.00" nVehEntered="7"/>
    <interval begin="60.00" end="90.00" id="d2_2" nVehContrib="8" flow="960.00" occupancy="68.49" speed="6.39" harmonicMeanSpeed="2.62" length="6.75" nVehEntered="8"/>
    <interval begin="60.00" end="90.00" id="d3_0" nVehContrib="3" flow="360.00" occupancy="5.74" speed="11.03" harmonicMeanSpeed="11.03" length="6.33" nVehEntered="3"/>
    <interval begin="60.00" end="90.00" id="d3_1" nVehContrib="5" flow="600.00" occupancy="20.97" speed="10.16" harmonicMeanSpeed="9.88" length="7.00" nVehEntered="6"/>
    <interval begin="60.00" end="90.00" id="d3_2" nVehContrib="8" flow="960.00" occupancy="63.70" speed="4.32" harmonicMeanSpeed="2.20" length="6.88" nVehEntered="7"/>
    <interval begin="60.00" end="90.00" id="d4_0" nVehContrib="5" flow="600.00" occupancy="16.83" speed="8.88" harmonicMeanSpeed="8.73" length="7.40" nVehEntered="6"/>
    <interval begin="60.00" end="90.00" id="d4_1" nVehContrib="7" flow="840.00" occupancy="26.87" speed="8.81" harmonicMeanSpeed="6.40" length="7.00" nVehEntered="7"/>
    <interval begin="60.00" end="90.00" id="d4_2" nVehContrib="5" flow="600.00" occupancy="12.30" speed="9.89" harmonicMeanSpeed="9.63" length="7.20" nVehEntered="5"/>
    <interval begin="60.00" end="90.00" id="od1_0" nVehContrib="3" flow="360.00" occupancy="14.10" speed="8.38" harmonicMeanSpeed="5.56" length="6.67" nVehEntered="3"/>
    <interval begin="60.00" end="90.00" id="od1_1" nVehContrib="7" flow="840.00" occupancy="15.50" speed="9.87" harmonicMeanSpeed="9.43" length="6.29" nVehEntered="7"/>
    <interval begin="60.00" end="90.00" id="od1_2" nVehContrib="7" flow="840.00" occupancy="55.85" speed="7.63" harmonicMeanSpeed="3.18" length="8.00" nVehEntered="7"/>
    <interval begin="60.00" end="90.00" id="od2_0" nVehContrib="1" flow="120.00" occupancy="2.68" speed="11.18" harmonicMeanSpeed="11.18" length="9.00" nVehEntered="1"/>
    <interval begin="60.00" end="90.00" id="od2_1" nVehContrib="8" flow="960.00" occupancy="16.44" speed="10.56" harmonicMeanSpeed="10.37" length="6.38" nVehEntered="8"/>
    <interval begin="60.00" end="90.00" id="od2_2" nVehContrib="8" flow="960.00" occupancy="85.72" speed="4.28" harmonicMeanSpeed="2.34" length="6.75" nVehEntered="8"/>
    <interval begin="60.00" end="90.00" id="od3_0" nVehContrib="3" flow="360.00" occupancy="5.66" speed="11.18" harmonicMeanSpeed="11.18" length="6.33" nVehEntered="3"/>
    <interval begin="60.00" end="90.00" id="od3_1" nVehContrib="6" flow="720.00" occupancy="13.88" speed="11.12" harmonicMeanSpeed="11.12" length="7.00" nVehEntered="7"/>
    <interval begin="60.00" end="90.00" id="od3_2" nVehContrib="7" flow="840.00" occupancy="53.87" speed="4.73" harmonicMeanSpeed="3.23" length="7.43" nVehEntered="6"/>
    <interval begin="60.00" end="90.00" id="od4_0" nVehContrib="8" flow="960.00" occupancy="44.91" speed="8.51" harmonicMeanSpeed="4.17" length="7.25" nVehEntered="7"/>
    <interval begin="60.00" end="90.00" id="od4_1" nVehContrib="10" flow="1200.00" occupancy="55.76" speed="7.33" harmonicMeanSpeed="3.14" length="6.50" nVehEntered="9"/>
    <interval begin="60.00" end="90.00" id="od4_2" nVehContrib="7" flow="840.00" occupancy="40.48" speed="9.45" harmonicMeanSpeed="4.44" length="7.29" nVehEntered="7"/>
    <interval begin="60.00" end="90.00" id="ood1_0" nVehContrib="2" flow="240.00" occupancy="3.28" speed="11.18" harmonicMeanSpeed="11.18" length="5.50" nVehEntered="2"/>
    <interval begin="60.00" end="90.00" id="ood1_1" nVehContrib="8" flow="960.00" occupancy="14.63" speed="11.16" harmonicMeanSpeed="11.16" length="6.13" nVehEntered="8"/>
    <interval begin="60.00" end="90.00" id="ood1_2" nVehContrib="8" flow="960.00" occupancy="49.70" speed="8.23" harmonicMeanSpeed="4.54" length="7.50" nVehEntered="9"/>
    <interval begin="60.00" end="90.00" id="ood2_0" nVehContrib="2" flow="240.00" occupancy="5.07" speed="11.18" harmonicMeanSpeed="11.18" length="8.50" nVehEntered="2"/>
    <interval begin="60.00" end="90.00" id="ood2_1" nVehContrib="10" flow="1200.00" occupancy="19.15" speed="11.15" harmonicMeanSpeed="11.14" length="6.40" nVehEntered="10"/>
    <interval begin="60.00" end="90.00" id="ood2_2" nVehContrib="8" flow="960.00" occupancy="75.24" speed="5.82" harmonicMeanSpeed="2.70" length="7.00" nVehEntered="9"/>
    <interval begin="60.00" end="90.00" id="ood3_0" nVehContrib="3" flow="360.00" occupancy="5.66" speed="11.18" harmonicMeanSpeed="11.18" length="6.33" nVehEntered="3"/>
    <interval begin="60.00" end="90.00" id="ood3_1" nVehContrib="7" flow="840.00" occupancy="15.21" speed="11.18" harmonicMeanSpeed="11.18" length="7.29" nVehEntered="7"/>
    <interval begin="60.00" end="90.00" id="ood3_2" nVehContrib="7" flow="840.00" occupancy="62.99" speed="4.96" harmonicMeanSpeed="2.94" length="7.43" nVehEntered="8"/>
    <interval begin="60.00" end="90.00" id="ood4_0" nVehContrib="7" flow="840.00" occupancy="14.66" speed="11.15" harmonicMeanSpeed="11.15" length="7.00" nVehEntered="7"/>
    <interval begin="60.00" end="90.00" id="ood4_1" nVehContrib="10" flow="1200.00" occupancy="24.99" speed="10.00" harmonicMeanSpeed="8.47" length="6.40" nVehEntered="9"/>
    <interval begin="60.00" end="90.00" id="ood4_2" nVehContrib="8" flow="960.00" occupancy="20.30" speed="10.36" harmonicMeanSpeed="9.99" length="6.88" nVehEntered="9"/>
    <interval begin="60.00" end="90.00" id="oood1_0" nVehContrib="2" flow="240.00" occupancy="3.29" speed="11.15" harmonicMeanSpeed="11.15" length="5.50" nVehEntered="2"/>
    <interval begin="60.00" end="90.00" id="oood1_1" nVehContrib="8" flow="960.00" occupancy="16.24" speed="11.14" harmonicMeanSpeed="11.14" length="6.13" nVehEntered="9"/>
    <interval begin="60.00" end="90.00" id="oood1_2" nVehContrib="9" flow="1080.00" occupancy="34.44" speed="8.14" harmonicMeanSpeed="6.25" length="7.33" nVehEntered="9"/>
    <interval begin="60.00" end="90.00" id="oood2_0" nVehContrib="3" flow="360.00" occupancy="6.58" speed="11.15" harmonicMeanSpeed="11.15" length="7.33" nVehEntered="3"/>
    <interval begin="60.00" end="90.00" id="oood2_1" nVehContrib="9" flow="1080.00" occupancy="16.44" speed="11.15" harmonicMeanSpeed="11.15" length="6.11" nVehEntered="9"/>
    <interval begin="60.00" end="90.00" id="oood2_2" nVehContrib="9" flow="1080.00" occupancy="45.68" speed="7.27" harmonicMeanSpeed="4.48" length="6.89" nVehEntered="10"/>
    <interval begin="60.00" end="90.00" id="oood3_0" nVehContrib="3" flow="360.00" occupancy="5.68" speed="11.14" harmonicMeanSpeed="11.14" length="6.33" nVehEntered="3"/>
    <interval begin="60.00" end="90.00" id="oood3_1" nVehContrib="7" flow="840.00" occupancy="14.20" speed="11.13" harmonicMeanSpeed="11.13" length="7.29" nVehEntered="6"/>
    <interval begin="60.00" end="90.00" id="oood3_2" nVehContrib="8" flow="960.00" occupancy="37.21" speed="7.71" harmonicMeanSpeed="6.58" length="7.50" nVehEntered="9"/>
    <interval begin="60.00" end="90.00" id="oood4_0" nVehContrib="6" flow="720.00" occupancy="13.15" speed="11.15" harmonicMeanSpeed="11.15" length="7.33" nVehEntered="6"/>
    <interval begin="60.00" end="90.00" id="oood4_1" nVehContrib="10" flow="1200.00" occupancy="18.93" speed="11.04" harmonicMeanSpeed="11.04" length="6.30" nVehEntered="10"/>
    <interval begin="60.00" end="90.00" id="oood4_2" nVehContrib="9" flow="1080.00" occupancy="21.26" speed="11.05" harmonicMeanSpeed="11.05" length="7.11" nVehEntered="10"/>