<?xml version="1.0" encoding="UTF-8"?>

<!-- generated on 04/18/21 16:18:31 by Eclipse SUMO GUI Version 1.8.0
<configuration xmlns:xsi="http://www.w3.org/2001/XMLSchema-instance" xsi:noNamespaceSchemaLocation="http://sumo.dlr.de/xsd/sumoConfiguration.xsd">

    <input>
        <net-file value="data/lane3_roundabout.net.xml"/>
        <route-files value="data/icacc+.rou.xml"/>
        <additional-files value="data/icacc+.det.xml"/>
    </input>

    <output>
        <tripinfo-output value="tripinfo.xml"/>
    </output>

    <time>
        <begin value="0"/>
        <step-length value="0.1"/>
    </time>

    <processing>
        <collision.mingap-factor value="0"/>
        <time-to-teleport value="-1"/>
        <lanechange.duration value="0.5"/>
    </processing>

    <report>
        <verbose value="true"/>
        <no-step-log value="true"/>
    </report>

    <traci_server>
        <remote-port value="12810"/>
    </traci_server>

    <gui_only>
        <start value="true"/>
        <tracker-interval value="0.1"/>
    </gui_only>

</configuration>
-->

<detector xmlns:xsi="http://www.w3.org/2001/XMLSchema-instance" xsi:noNamespaceSchemaLocation="http://sumo.dlr.de/xsd/det_e1_file.xsd">
    <interval begin="0.00" end="30.00" id="d1_0" nVehContrib="7" flow="840.00" occupancy="12.82" speed="11.18" harmonicMeanSpeed="11.18" length="6.14" nVehEntered="7"/>
    <interval begin="0.00" end="30.00" id="d1_1" nVehContrib="0" flow="0.00" occupancy="0.00" speed="-1.00" harmonicMeanSpeed="-1.00" length="-1.00" nVehEntered="0"/>
    <interval begin="0.00" end="30.00" id="d1_2" nVehContrib="7" flow="840.00" occupancy="15.24" speed="10.65" harmonicMeanSpeed="10.44" length="6.29" nVehEntered="8"/>
    <interval begin="0.00" end="30.00" id="d2_0" nVehContrib="8" flow="960.00" occupancy="15.62" speed="11.08" harmonicMeanSpeed="11.08" length="6.50" nVehEntered="8"/>
    <interval begin="0.00" end="30.00" id="d2_1" nVehContrib="0" flow="0.00" occupancy="0.00" speed="-1.00" harmonicMeanSpeed="-1.00" length="-1.00" nVehEntered="0"/>
    <interval begin="0.00" end="30.00" id="d2_2" nVehContrib="0" flow="0.00" occupancy="0.00" speed="-1.00" harmonicMeanSpeed="-1.00" length="-1.00" nVehEntered="0"/>
    <interval begin="0.00" end="30.00" id="d3_0" nVehContrib="5" flow="600.00" occupancy="9.84" speed="11.18" harmonicMeanSpeed="11.18" length="6.60" nVehEntered="5"/>
    <interval begin="0.00" end="30.00" id="d3_1" nVehContrib="2" flow="240.00" occupancy="4.77" speed="11.18" harmonicMeanSpeed="11.18" length="8.00" nVehEntered="2"/>
    <interval begin="0.00" end="30.00" id="d3_2" nVehContrib="2" flow="240.00" occupancy="4.17" speed="11.18" harmonicMeanSpeed="11.18" length="7.00" nVehEntered="2"/>
    <interval begin="0.00" end="30.00" id="d4_0" nVehContrib="8" flow="960.00" occupancy="18.21" speed="11.18" harmonicMeanSpeed="11.18" length="7.00" nVehEntered="9"/>
    <interval begin="0.00" end="30.00" id="d4_1" nVehContrib="0" flow="0.00" occupancy="0.00" speed="-1.00" harmonicMeanSpeed="-1.00" length="-1.00" nVehEntered="0"/>
    <interval begin="0.00" end="30.00" id="d4_2" nVehContrib="2" flow="240.00" occupancy="3.28" speed="11.18" harmonicMeanSpeed="11.18" length="5.50" nVehEntered="2"/>
    <interval begin="0.00" end="30.00" id="od1_0" nVehContrib="7" flow="840.00" occupancy="14.00" speed="11.18" harmonicMeanSpeed="11.18" length="6.14" nVehEntered="8"/>
    <interval begin="0.00" end="30.00" id="od1_1" nVehContrib="0" flow="0.00" occupancy="0.00" speed="-1.00" harmonicMeanSpeed="-1.00" length="-1.00" nVehEntered="0"/>
    <interval begin="0.00" end="30.00" id="od1_2" nVehContrib="8" flow="960.00" occupancy="14.61" speed="11.18" harmonicMeanSpeed="11.18" length="6.13" nVehEntered="8"/>
    <interval begin="0.00" end="30.00" id="od2_0" nVehContrib="9" flow="1080.00" occupancy="19.14" speed="11.18" harmonicMeanSpeed="11.18" length="6.56" nVehEntered="10"/>
    <interval begin="0.00" end="30.00" id="od2_1" nVehContrib="0" flow="0.00" occupancy="0.00" speed="-1.00" harmonicMeanSpeed="-1.00" length="-1.00" nVehEntered="0"/>
    <interval begin="0.00" end="30.00" id="od2_2" nVehContrib="1" flow="120.00" occupancy="2.68" speed="11.18" harmonicMeanSpeed="11.18" length="9.00" nVehEntered="1"/>
    <interval begin="0.00" end="30.00" id="od3_0" nVehContrib="6" flow="720.00" occupancy="11.33" speed="11.18" harmonicMeanSpeed="11.18" length="6.33" nVehEntered="6"/>
    <interval begin="0.00" end="30.00" id="od3_1" nVehContrib="2" flow="240.00" occupancy="4.77" speed="11.18" harmonicMeanSpeed="11.18" length="8.00" nVehEntered="2"/>
    <interval begin="0.00" end="30.00" id="od3_2" nVehContrib="2" flow="240.00" occupancy="4.17" speed="11.18" harmonicMeanSpeed="11.18" length="7.00" nVehEntered="2"/>
    <interval begin="0.00" end="30.00" id="od4_0" nVehContrib="9" flow="1080.00" occupancy="20.20" speed="11.18" harmonicMeanSpeed="11.18" length="6.89" nVehEntered="10"/>
    <interval begin="0.00" end="30.00" id="od4_1" nVehContrib="1" flow="120.00" occupancy="2.09" speed="11.18" harmonicMeanSpeed="11.18" length="7.00" nVehEntered="1"/>
    <interval begin="0.00" end="30.00" id="od4_2" nVehContrib="2" flow="240.00" occupancy="3.28" speed="11.18" harmonicMeanSpeed="11.18" length="5.50" nVehEntered="2"/>
    <interval begin="0.00" end="30.00" id="ood1_0" nVehContrib="8" flow="960.00" occupancy="14.91" speed="11.18" harmonicMeanSpeed="11.18" length="6.25" nVehEntered="8"/>
    <interval begin="0.00" end="30.00" id="ood1_1" nVehContrib="0" flow="0.00" occupancy="0.00" speed="-1.00" harmonicMeanSpeed="-1.00" length="-1.00" nVehEntered="0"/>
    <interval begin="0.00" end="30.00" id="ood1_2" nVehContrib="9" flow="1080.00" occupancy="16.10" speed="11.18" harmonicMeanSpeed="11.18" length="6.00" nVehEntered="9"/>
    <interval begin="0.00" end="30.00" id="ood2_0" nVehContrib="11" flow="1320.00" occupancy="21.17" speed="11.18" harmonicMeanSpeed="11.18" length="6.45" nVehEntered="11"/>
    <interval begin="0.00" end="30.00" id="ood2_1" nVehContrib="0" flow="0.00" occupancy="0.00" speed="-1.00" harmonicMeanSpeed="-1.00" length="-1.00" nVehEntered="0"/>
    <interval begin="0.00" end="30.00" id="ood2_2" nVehContrib="1" flow="120.00" occupancy="2.68" speed="11.18" harmonicMeanSpeed="11.18" length="9.00" nVehEntered="1"/>
    <interval begin="0.00" end="30.00" id="ood3_0" nVehContrib="7" flow="840.00" occupancy="12.82" speed="11.18" harmonicMeanSpeed="11.18" length="6.14" nVehEntered="7"/>
    <interval begin="0.00" end="30.00" id="ood3_1" nVehContrib="2" flow="240.00" occupancy="4.77" speed="11.18" harmonicMeanSpeed="11.18" length="8.00" nVehEntered="2"/>
    <interval begin="0.00" end="30.00" id="ood3_2" nVehContrib="2" flow="240.00" occupancy="4.17" speed="11.18" harmonicMeanSpeed="11.18" length="7.00" nVehEntered="2"/>
    <interval begin="0.00" end="30.00" id="ood4_0" nVehContrib="11" flow="1320.00" occupancy="22.06" speed="11.18" harmonicMeanSpeed="11.18" length="6.73" nVehEntered="11"/>
    <interval begin="0.00" end="30.00" id="ood4_1" nVehContrib="1" flow="120.00" occupancy="2.09" speed="11.18" harmonicMeanSpeed="11.18" length="7.00" nVehEntered="1"/>
    <interval begin="0.00" end="30.00" id="ood4_2" nVehContrib="3" flow="360.00" occupancy="5.96" speed="11.18" harmonicMeanSpeed="11.18" length="6.67" nVehEntered="3"/>
    <interval begin="0.00" end="30.00" id="oood1_0" nVehContrib="9" flow="1080.00" occupancy="17.77" speed="11.07" harmonicMeanSpeed="11.07" length="6.56" nVehEntered="9"/>
    <interval begin="0.00" end="30.00" id="oood1_1" nVehContrib="0" flow="0.00" occupancy="0.00" speed="-1.00" harmonicMeanSpeed="-1.00" length="-1.00" nVehEntered="0"/>
    <interval begin="0.00" end="30.00" id="oood1_2" nVehContrib="10" flow="1200.00" occupancy="18.57" speed="11.13" harmonicMeanSpeed="11.13" length="6.20" nVehEntered="10"/>
    <interval begin="0.00" end="30.00" id="oood2_0" nVehContrib="12" flow="1440.00" occupancy="22.69" speed="11.16" harmonicMeanSpeed="11.16" length="6.33" nVehEntered="12"/>
    <interval begin="0.00" end="30.00" id="oood2_1" nVehContrib="0" flow="0.00" occupancy="0.00" speed="-1.00" harmonicMeanSpeed="-1.00" length="-1.00" nVehEntered="0"/>
    <interval begin="0.00" end="30.00" id="oood2_2" nVehContrib="1" flow="120.00" occupancy="2.68" speed="11.18" harmonicMeanSpeed="11.18" length="9.00" nVehEntered="1"/>
    <interval begin="0.00" end="30.00" id="oood3_0" nVehContrib="8" flow="960.00" occupancy="15.88" speed="10.95" harmonicMeanSpeed="10.94" length="6.50" nVehEntered="8"/>
    <interval begin="0.00" end="30.00" id="oood3_1" nVehContrib="2" flow="240.00" occupancy="4.77" speed="11.18" harmonicMeanSpeed="11.18" length="8.00" nVehEntered="2"/>
    <interval begin="0.00" end="30.00" id="oood3_2" nVehContrib="3" flow="360.00" occupancy="6.56" speed="11.18" harmonicMeanSpeed="11.18" length="7.33" nVehEntered="3"/>
    <interval begin="0.00" end="30.00" id="oood4_0" nVehContrib="12" flow="1440.00" occupancy="23.96" speed="11.13" harmonicMeanSpeed="11.13" length="6.67" nVehEntered="12"/>
    <interval begin="0.00" end="30.00" id="oood4_1" nVehContrib="1" flow="120.00" occupancy="2.09" speed="11.18" harmonicMeanSpeed="11.18" length="7.00" nVehEntered="1"/>
    <interval begin="0.00" end="30.00" id="oood4_2" nVeh