<?xml version="1.0" encoding="UTF-8"?>

<!-- generated on 07/21/20 17:41:39 by Eclipse SUMO GUI Version 1.6.0
<configuration xmlns:xsi="http://www.w3.org/2001/XMLSchema-instance" xsi:noNamespaceSchemaLocation="http://sumo.dlr.de/xsd/sumoConfiguration.xsd">

    <input>
        <net-file value="data/lane3.net.xml"/>
        <route-files value="data/icacc+.rou.xml"/>
        <additional-files value="data/icacc+.det.xml"/>
    </input>

    <output>
        <tripinfo-output value="tripinfo.xml"/>
    </output>

    <time>
        <begin value="0"/>
        <step-length value="0.1"/>
    </time>

    <processing>
        <collision.mingap-factor value="0"/>
        <time-to-teleport value="-1"/>
        <lanechange.duration value="0.01"/>
    </processing>

    <report>
        <verbose value="true"/>
        <no-step-log value="true"/>
    </report>

    <traci_server>
        <remote-port value="13155"/>
    </traci_server>

    <gui_only>
        <start value="true"/>
        <tracker-interval value="0.1"/>
    </gui_only>

</configuration>
-->

<detector xmlns:xsi="http://www.w3.org/2001/XMLSchema-instance" xsi:noNamespaceSchemaLocation="http://sumo.dlr.de/xsd/det_e1_file.xsd">
    <interval begin="0.00" end="30.00" id="d1_0" nVehContrib="0" flow="0.00" occupancy="0.69" speed="-1.00" harmonicMeanSpeed="-1.00" length="-1.00" nVehEntered="1"/>
    <interval begin="0.00" end="30.00" id="d1_1" nVehContrib="0" flow="0.00" occupancy="0.00" speed="-1.00" harmonicMeanSpeed="-1.00" length="-1.00" nVehEntered="0"/>
    <interval begin="0.00" end="30.00" id="d1_2" nVehContrib="5" flow="600.00" occupancy="10.14" speed="11.18" harmonicMeanSpeed="11.18" length="6.80" nVehEntered="5"/>
    <interval begin="0.00" end="30.00" id="d2_0" nVehContrib="3" flow="360.00" occupancy="6.56" speed="11.18" harmonicMeanSpeed="11.18" length="7.33" nVehEntered="3"/>
    <interval begin="0.00" end="30.00" id="d2_1" nVehContrib="1" flow="120.00" occupancy="3.08" speed="11.18" harmonicMeanSpeed="11.18" length="9.00" nVehEntered="2"/>
    <interval begin="0.00" end="30.00" id="d2_2" nVehContrib="6" flow="720.00" occupancy="14.12" speed="11.10" harmonicMeanSpeed="11.09" length="7.83" nVehEntered="6"/>
    <interval begin="0.00" end="30.00" id="d3_0" nVehContrib="1" flow="120.00" occupancy="1.49" speed="11.18" harmonicMeanSpeed="11.18" length="5.00" nVehEntered="1"/>
    <interval begin="0.00" end="30.00" id="d3_1" nVehContrib="1" flow="120.00" occupancy="2.09" speed="11.18" harmonicMeanSpeed="11.18" length="7.00" nVehEntered="1"/>
    <interval begin="0.00" end="30.00" id="d3_2" nVehContrib="6" flow="720.00" occupancy="17.48" speed="10.14" harmonicMeanSpeed="9.64" length="8.33" nVehEntered="6"/>
    <interval begin="0.00" end="30.00" id="d4_0" nVehContrib="1" flow="120.00" occupancy="1.79" speed="11.18" harmonicMeanSpeed="11.18" length="6.00" nVehEntered="1"/>
    <interval begin="0.00" end="30.00" id="d4_1" nVehContrib="3" flow="360.00" occupancy="6.26" speed="11.18" harmonicMeanSpeed="11.18" length="7.00" nVehEntered="3"/>
    <interval begin="0.00" end="30.00" id="d4_2" nVehContrib="3" flow="360.00" occupancy="7.25" speed="11.18" harmonicMeanSpeed="11.18" length="7.33" nVehEntered="4"/>
    <interval begin="0.00" end="30.00" id="od1_0" nVehContrib="1" flow="120.00" occupancy="2.39" speed="11.18" harmonicMeanSpeed="11.18" length="8.00" nVehEntered="1"/>
    <interval begin="0.00" end="30.00" id="od1_1" nVehContrib="0" flow="0.00" occupancy="0.00" speed="-1.00" harmonicMeanSpeed="-1.00" length="-1.00" nVehEntered="0"/>
    <interval begin="0.00" end="30.00" id="od1_2" nVehContrib="5" flow="600.00" occupancy="10.72" speed="11.18" harmonicMeanSpeed="11.18" length="6.80" nVehEntered="6"/>
    <interval begin="0.00" end="30.00" id="od2_0" nVehContrib="3" flow="360.00" occupancy="6.56" speed="11.18" harmonicMeanSpeed="11.18" length="7.33" nVehEntered="3"/>
    <interval begin="0.00" end="30.00" id="od2_1" nVehContrib="2" flow="240.00" occupancy="4.77" speed="11.18" harmonicMeanSpeed="11.18" length="8.00" nVehEntered="2"/>
    <interval begin="0.00" end="30.00" id="od2_2" nVehContrib="6" flow="720.00" occupancy="15.49" speed="11.18" harmonicMeanSpeed="11.18" length="7.83" nVehEntered="7"/>
    <interval begin="0.00" end="30.00" id="od3_0" nVehContrib="1" flow="120.00" occupancy="1.49" speed="11.18" harmonicMeanSpeed="11.18" length="5.00" nVehEntered="1"/>
    <interval begin="0.00" end="30.00" id="od3_1" nVehContrib="1" flow="120.00" occupancy="2.09" speed="11.18" harmonicMeanSpeed="11.18" length="7.00" nVehEntered="1"/>
    <interval begin="0.00" end="30.00" id="od3_2" nVehContrib="7" flow="840.00" occupancy="16.40" speed="11.18" harmonicMeanSpeed="11.18" length="7.86" nVehEntered="7"/>
    <interval begin="0.00" end="30.00" id="od4_0" nVehContrib="2" flow="240.00" occupancy="3.88" speed="11.18" harmonicMeanSpeed="11.18" length="6.50" nVehEntered="2"/>
    <interval begin="0.00" end="30.00" id="od4_1" nVehContrib="3" flow="360.00" occupancy="6.26" speed="11.18" harmonicMeanSpeed="11.18" length="7.00" nVehEntered="3"/>
    <interval begin="0.00" end="30.00" id="od4_2" nVehContrib="4" flow="480.00" occupancy="8.94" speed="11.18" harmonicMeanSpeed="11.18" length="7.50" nVehEntered="4"/>
    <interval begin="0.00" end="30.00" id="ood1_0" nVehContrib="1" flow="120.00" occupancy="2.39" speed="11.18" harmonicMeanSpeed="11.18" length="8.00" nVehEntered="1"/>
    <interval begin="0.00" end="30.00" id="ood1_1" nVehContrib="0" flow="0.00" occupancy="0.00" speed="-1.00" harmonicMeanSpeed="-1.00" length="-1.00" nVehEntered="0"/>
    <interval begin="0.00" end="30.00" id="ood1_2" nVehContrib="6" flow="720.00" occupancy="11.63" speed="11.18" harmonicMeanSpeed="11.18" length="6.50" nVehEntered="6"/>
    <interval begin="0.00" end="30.00" id="ood2_0" nVehContrib="3" flow="360.00" occupancy="6.56" speed="11.18" harmonicMeanSpeed="11.18" length="7.33" nVehEntered="3"/>
    <interval begin="0.00" end="30.00" id="ood2_1" nVehContrib="2" flow="240.00" occupancy="4.77" speed="11.18" harmonicMeanSpeed="11.18" length="8.00" nVehEntered="2"/>
    <interval begin="0.00" end="30.00" id="ood2_2" nVehContrib="7" flow="840.00" occupancy="16.86" speed="11.18" harmonicMeanSpeed="11.18" length="7.86" nVehEntered="8"/>
    <interval begin="0.00" end="30.00" id="ood3_0" nVehContrib="2" flow="240.00" occupancy="3.28" speed="11.18" harmonicMeanSpeed="11.18" length="5.50" nVehEntered="2"/>
    <interval begin="0.00" end="30.00" id="ood3_1" nVehContrib="1" flow="120.00" occupancy="2.09" speed="11.18" harmonicMeanSpeed="11.18" length="7.00" nVehEntered="1"/>
    <interval begin="0.00" end="30.00" id="ood3_2" nVehContrib="7" flow="840.00" occupancy="16.40" speed="11.18" harmonicMeanSpeed="11.18" length="7.86" nVehEntered="7"/>
    <interval begin="0.00" end="30.00" id="ood4_0" nVehContrib="2" flow="240.00" occupancy="5.84" speed="11.18" harmonicMeanSpeed="11.18" length="6.50" nVehEntered="3"/>
    <interval begin="0.00" end="30.00" id="ood4_1" nVehContrib="3" flow="360.00" occupancy="6.26" speed="11.18" harmonicMeanSpeed="11.18" length="7.00" nVehEntered="3"/>
    <interval begin="0.00" end="30.00" id="ood4_2" nVehContrib="5" flow="600.00" occupancy="10.73" speed="11.18" harmonicMeanSpeed="11.18" length="7.20" nVehEntered="5"/>
    <interval begin="0.00" end="30.00" id="oood1_0" nVehContrib="2" flow="240.00" occupancy="4.17" speed="11.18" harmonicMeanSpeed="11.18" length="7.00" nVehEntered="2"/>
    <interval begin="0.00" end="30.00" id="oood1_1" nVehContrib="1" flow="120.00" occupancy="2.09" speed="11.18" harmonicMeanSpeed="11.18" length="7.00" nVehEntered="1"/>
    <interval begin="0.00" end="30.00" id="oood1_2" nVehContrib="6" flow="720.00" occupancy="11.65" speed="11.17" harmonicMeanSpeed="11.17" length="6.50" nVehEntered="6"/>
    <interval begin="0.00" end="30.00" id="oood2_0" nVehContrib="3" flow="360.00" occupancy="7.02" speed="11.18" harmonicMeanSpeed="11.18" length="7.33" nVehEntered="4"/>
    <interval begin="0.00" end="30.00" id="oood2_1" nVehContrib="2" flow="240.00" occupancy="4.77" speed="11.18" harmonicMeanSpeed="11.18" length="8.00" nVehEntered="2"/>
    <interval begin="0.00" end="30.00" id="oood2_2" nVehContrib="8" flow="960.00" occupancy="18.23" speed="11.15" harmonicMeanSpeed="11.15" length="7.63" nVehEntered="8"/>
    <interval begin="0.00" end="30.00" id="oood3_0" nVehContrib="2" flow="240.00" occupancy="3.28" speed="11.18" harmonicMeanSpeed="11.18" length="5.50" nVehEntered="2"/>
    <interval begin="0.00" end="30.00" id="oood3_1" nVehContrib="1" flow="120.00" occupancy="2.11" speed="11.18" harmonicMeanSpeed="11.18" length="7.00" nVehEntered="2"/>
    <interval begin="0.00" end="30.00" id="oood3_2" nVehContrib="8" flow="960.00" occupancy="18.20" speed="11.17" harmonicMeanSpeed="11.17" length="7.63" nVehEntered="8"/>
    <interval begin="0.00" end="30.00" id="oood4_0" nVehContrib="3" flow="360.00" occupancy="5.98" speed="11.18" harmonicMeanSpeed="11.18" length="6.67" nVehEntered="4"/>
    <interval begin="0.00" end="30.00" id="oood4_1" nVehContrib="4" flow="480.00" occupancy="8.35" speed="11.18" harmonicMeanSpeed="11.18" length="7.00" nVehEntered="4"/>
    <interval begin="0.00" end="30.00" id="oood4_2" nVehContrib="5" flow="600.00" occupancy="10.78" speed="11.13" harmonicMeanSpeed="11.13" length="7.20" nVehEntered="5"/>
    <interval begin="0.00" end="30.00" id="ooood1_0" nVehContrib="6" flow="720.00" occupancy="3.61" speed="36.93" harmonicMeanSpeed="35.15" length="6.67" nVehEntered="6"/>
    <interval begin="0.00" end="30.00" id="ooood1_1" nVehContrib="3" flow="360.00" occupancy="1.81" speed="36.93" harmonicMeanSpeed="36.74" length="6.67" nVehEntered="3"/>
    <interval begin="0.00" end="30.00" id="ooood1_2" nVehContrib="4" flow="480.00" occupancy="2.41" speed="37.40" harmonicMeanSpeed="34.84" length="6.75" nVehEntered="4"/>
    <interval begin="0.00" end="30.00" id="ooood2_0" nVehContrib="7" flow="840.00" occupancy="4.21" speed="41.95" harmonicMeanSpeed="41.32" length="7.57" nVehEntered="7"/>
    <interval begin="0.00" end="30.00" id="ooood2_1" nVehContrib="5" flow="600.00" occupancy="3.01" speed="41.00" harmonicMeanSpeed="40.23" length="7.40" nVehEntered="5"/>
    <interval begin="0.00" end="30.00" id="ooood2_2" nVehContrib="6" flow="720.00" occupancy="3.61" speed="38.78" harmonicMeanSpeed="37.99" length="7.00" nVehEntered="6"/>
    <interval begin="0.00" end="30.00" id="ooood3_0" nVehContrib="6" flow="720.00" occupancy="3.61" speed="42.47" harmonicMeanSpeed="41.06" length="7.67" nVehEntered="6"/>
    <interval begin="0.00" end="30.00" id="ooood3_1" nVehContrib="5" flow="600.00" occupancy="3.01" speed="38.78" harmonicMeanSpeed="37.15" length="7.00" nVehEntered="5"/>
    <interval begin="0.00" end="30.00" id="ooood3_2" nVehContrib="4" flow="480.00" occupancy="2.41" speed="36.01" harmonicMeanSpeed="33.89" length="6.50" nVehEntered="4"/>
    <interval begin="0.00" end="30.00" id="ooood4_0" nVehContrib="4" flow="480.00" occupancy="2.41" speed="37.40" harmonicMeanSpeed="35.71" length="6.75" nVehEntered="4"/>
    <interval begin="0.00" end="30.00" id="ooood4_1" nVehContrib="8" flow="960.00" occupancy="4.81" speed="40.86" harmonicMeanSpeed="39.96" length="7.38" nVehEntered="8"/>
    <interval begin="0.00" end="30.00" id="ooood4_2" nVehContrib="5" flow="600.00" occupancy="3.01" speed="38.78" harmonicMeanSpeed="37.35" length="7.00" nVehEntered="5"/>
    <interval begin="30.00" end="60.00" id="d1_0" nVehContrib="7" flow="840.00" occupancy="13.92" speed="11.18" harmonicMeanSpeed="11.18" length="7.00" nVehEntered="6"/>
    <interval begin="30.00" end="60.00" id="d1_1" nVehContrib="4" flow="480.00" occupancy="8.94" speed="11.18" harmonicMeanSpeed="11.18" length="7.50" nVehEntered="4"/>
    <interval begin="30.00" end="60.00" id="d1_2" nVehContrib="7" flow="840.00" occupancy="13.33" speed="11.05" harmonicMeanSpeed="11.04" length="6.29" nVehEntered="7"/>
    <interval begin="30.00" end="60.00" id="d2_0" nVehContrib="4" flow="480.00" occupancy="8.44" speed="11.18" harmonicMeanSpeed="11.18" length="7.00" nVehEntered="5"/>
    <interval begin="30.00" end="60.00" id="d2_1" nVehContrib="4" flow="480.00" occupancy="8.55" speed="11.18" harmonicMeanSpeed="11.18" length="7.50" nVehEntered="3"/>
    <interval begin="30.00" end="60.00" id="d2_2" nVehContrib="8" flow="960.00" occupancy="20.35" speed="10.71" harmonicMeanSpeed="10.67" length="7.00" nVehEntered="9"/>
    <interval begin="30.00" end="60.00" id="d3_0" nVehContrib="1" flow="120.00" occupancy="1.79" speed="11.18" harmonicMeanSpeed="11.18" length="6.00" nVehEntered="1"/>
    <interval begin="30.00" end="60.00" id="d3_1" nVehContrib="3" flow="360.00" occupancy="6.56" speed="11.18" harmonicMeanSpeed="11.18" length="7.33" nVehEntered="3"/>
    <interval begin="30.00" end="60.00" id="d3_2" nVehContrib="7" flow="840.00" occupancy="11.63" speed="11.18" harmonicMeanSpeed="11.18" length="5.57" nVehEntered="7"/>
    <interval begin="30.00" end="60.00" id="d4_0" nVehContrib="6" flow="720.00" occupancy="12.82" speed="11.18" harmonicMeanSpeed="11.18" length="7.17" nVehEntered="6"/>
    <interval begin="30.00" end="60.00" id="d4_1" nVehContrib="2" flow="240.00" occupancy="4.47" speed="11.18" harmonicMeanSpeed="11.18" length="7.50" nVehEntered="2"/>
    <interval begin="30.00" end="60.00" id="d4_2" nVehContrib="7" flow="840.00" occupancy="14.34" speed="11.10" harmonicMeanSpeed="11.10" length="7.14" nVehEntered="6"/>
    <interval begin="30.00" end="60.00" id="od1_0" nVehContrib="7" flow="840.00" occupancy="14.91" speed="11.18" harmonicMeanSpeed="11.18" length="7.14" nVehEntered="7"/>
    <interval begin="30.00" end="60.00" id="od1_1" nVehContrib="4" flow="480.00" occupancy="8.94" speed="11.18" harmonicMeanSpeed="11.18" length="7.50" nVehEntered="4"/>
    <interval begin="30.00" end="60.00" id="od1_2" nVehContrib="7" flow="840.00" occupancy="12.53" speed="11.18" harmonicMeanSpeed="11.18" length="6.29" nVehEntered="6"/>
    <interval begin="30.00" end="60.00" id="od2_0" nVehContrib="5" flow="600.00" occupancy="10.14" speed="11.18" harmonicMeanSpeed="11.18" length="6.80" nVehEntered="5"/>
    <interval begin="30.00" end="60.00" id="od2_1" nVehContrib="3" flow="360.00" occupancy="7.11" speed="11.18" harmonicMeanSpeed="11.18" length="7.67" nVehEntered="4"/>
    <interval begin="30.00" end="60.00" id="od2_2" nVehContrib="10" flow="1200.00" occupancy="18.79" speed="11.18" harmonicMeanSpeed="11.18" length="6.80" nVehEntered="9"/>
    <interval begin="30.00" end="60.00" id="od3_0" nVehContrib="2" flow="240.00" occupancy="3.58" speed="11.18" harmonicMeanSpeed="11.18" length="6.00" nVehEntered="2"/>
    <interval begin="30.00" end="60.00" id="od3_1" nVehContrib="3" flow="360.00" occupancy="6.56" speed="11.18" harmonicMeanSpeed="11.18" length="7.33" nVehEntered="3"/>
    <interval begin="30.00" end="60.00" id="od3_2" nVehContrib="7" flow="840.00" occupancy="11.93" speed="11.18" harmonicMeanSpeed="11.18" length="5.71" nVehEntered="7"/>
    <interval begin="30.00" end="60.00" id="od4_0" nVehContrib="5" flow="600.00" occupancy="10.73" speed="11.18" harmonicMeanSpeed="11.18" length="7.20" nVehEntered="5"/>
    <interval begin="30.00" end="60.00" id="od4_1" nVehContrib="2" flow="240.00" occupancy="6.25" speed="11.18" harmonicMeanSpeed="11.18" length="7.50" nVehEntered="3"/>
    <interval begin="30.00" end="60.00" id="od4_2" nVehContrib="6" flow="720.00" occupancy="12.52" speed="11.18" harmonicMeanSpeed="11.18" length="7.00" nVehEntered="6"/>
    <interval begin="30.00" end="60.00" id="ood1_0" nVehContrib="7" flow="840.00" occupancy="16.58" speed="11.18" harmonicMeanSpeed="11.18" length="7.14" nVehEntered="8"/>
    <interval begin="30.00" end="60.00" id="ood1_1" nVehContrib="4" flow="480.00" occupancy="8.94" speed="11.18" harmonicMeanSpeed="11.18" length="7.50" nVehEntered="4"/>
    <interval begin="30.00" end="60.00" id="ood1_2" nVehContrib="6" flow="720.00" occupancy="11.63" speed="11.18" harmonicMeanSpeed="11.18" length="6.50" nVehEntered="6"/>
    <interval begin="30.00" end="60.00" id="ood2_0" nVehContrib="5" flow="600.00" occupancy="10.14" speed="11.18" harmonicMeanSpeed="11.18" length="6.80" nVehEntered="5"/>
    <interval begin="30.00" end="60.00" id="ood2_1" nVehContrib="4" flow="480.00" occupancy="8.35" speed="11.18" harmonicMeanSpeed="11.18" length="7.00" nVehEntered="4"/>
    <interval begin="30.00" end="60.00" id="ood2_2" nVehContrib="9" flow="1080.00" occupancy="18.80" speed="11.18" harmonicMeanSpeed="11.18" length="6.67" nVehEntered="9"/>
    <interval begin="30.00" end="60.00" id="ood3_0" nVehContrib="1" flow="120.00" occupancy="3.76" speed="11.18" harmonicMeanSpeed="11.18" length="6.00" nVehEntered="2"/>
    <interval begin="30.00" end="60.00" id="ood3_1" nVehContrib="3" flow="360.00" occupancy="6.56" speed="11.18" harmonicMeanSpeed="11.18" length="7.33" nVehEntered="3"/>
    <interval begin="30.00" end="60.00" id="ood3_2" nVehContrib="8" flow="960.00" occupancy="14.01" speed="11.18" harmonicMeanSpeed="11.18" length="5.88" nVehEntered="8"/>
    <interval begin="30.00" end="60.00" id="ood4_0" nVehContrib="6" flow="720.00" occupancy="11.45" speed="11.18" harmonicMeanSpeed="11.18" length="7.50" nVehEntered="5"/>
    <interval begin="30.00" end="60.00" id="ood4_1" nVehContrib="3" flow="360.00" occupancy="7.16" speed="11.18" harmonicMeanSpeed="11.18" length="8.00" nVehEntered="3"/>
    <interval begin="30.00" end="60.00" id="ood4_2" nVehContrib="5" flow="600.00" occupancy="10.73" speed="11.18" harmonicMeanSpeed="11.18" length="7.20" nVehEntered="5"/>
    <interval begin="30.00" end="60.00" id="oood1_0" nVehContrib="7" flow="840.00" occupancy="14.91" speed="11.18" harmonicMeanSpeed="11.18" length="7.14" nVehEntered="7"/>
    <interval begin="30.00" end="60.00" id="oood1_1" nVehContrib="3" flow="360.00" occupancy="6.88" speed="11.14" harmonicMeanSpeed="11.14" length="7.67" nVehEntered="3"/>
    <interval begin="30.00" end="60.00" id="oood1_2" nVehContrib="6" flow="720.00" occupancy="11.63" speed="11.18" harmonicMeanSpeed="11.18" length="6.50" nVehEntered="6"/>
    <interval begin="30.00" end="60.00" id="oood2_0" nVehContrib="6" flow="720.00" occupancy="11.48" speed="11.17" harmonicMeanSpeed="11.17" length="6.67" nVehEntered="5"/>
    <interval begin="30.00" end="60.00" id="oood2_1" nVehContrib="4" flow="480.00" occupancy="8.35" speed="11.18" harmonicMeanSpeed="11.18" length="7.00" nVehEntered="4"/>
    <interval begin="30.00" end="60.00" id="oood2_2" nVehContrib="9" flow="1080.00" occupancy="17.61" speed="11.17" harmonicMeanSpeed="11.17" length="6.56" nVehEntered="9"/>
    <interval begin="30.00" end="60.00" id="oood3_0" nVehContrib="2" flow="240.00" occupancy="3.88" speed="11.18" harmonicMeanSpeed="11.18" length="6.50" nVehEntered="2"/>
    <interval begin="30.00" end="60.00" id="oood3_1" nVehContrib="4" flow="480.00" occupancy="8.33" speed="11.18" harmonicMeanSpeed="11.18" length="7.00" nVehEntered="3"/>
    <interval begin="30.00" end="60.00" id="oood3_2" nVehContrib="8" flow="960.00" occupancy="14.07" speed="11.14" harmonicMeanSpeed="11.14" length="5.88" nVehEntered="8"/>
    <interval begin="30.00" end="60.00" id="oood4_0" nVehContrib="5" flow="600.00" occupancy="13.58" speed="11.15" harmonicMeanSpeed="11.15" length="7.60" nVehEntered="5"/>
    <interval begin="30.00" end="60.00" id="oood4_1" nVehContrib="2" flow="240.00" occupancy="5.07" speed="11.18" harmonicMeanSpeed="11.18" length="8.50" nVehEntered="2"/>
    <interval begin="30.00" end="60.00" id="oood4_2" nVehContrib="5" flow="600.00" occupancy="10.73" speed="11.18" harmonicMeanSpeed="11.18" length="7.20" nVehEntered="5"/>
    <interval begin="30.00" end="60.00" id="ooood1_0" nVehContrib="2" flow="240.00" occupancy="1.20" speed="38.78" harmonicMeanSpeed="38.78" length="7.00" nVehEntered="2"/>
    <interval begin="30.00" end="60.00" id="ooood1_1" nVehContrib="7" flow="840.00" occupancy="4.21" speed="41.95" harmonicMeanSpeed="40.48" length="7.57" nVehEntered="7"/>
    <interval begin="30.00" end="60.00" id="ooood1_2" nVehContrib="4" flow="480.00" occupancy="2.41" speed="37.40" harmonicMeanSpeed="35.94" length="6.75" nVehEntered="4"/>
    <interval begin="30.00" end="60.00" id="ooood2_0" nVehContrib="6" flow="720.00" occupancy="3.61" speed="36.93" harmonicMeanSpeed="35.51" length="6.67" nVehEntered="6"/>
    <interval begin="30.00" end="60.00" id="ooood2_1" nVehContrib="5" flow="600.00" occupancy="3.01" speed="41.00" harmonicMeanSpeed="38.80" length="7.40" nVehEntered="5"/>
    <interval begin="30.00" end="60.00" id="ooood2_2" nVehContrib="5" flow="600.00" occupancy="3.01" speed="37.67" harmonicMeanSpeed="36.28" length="6.80" nVehEntered="5"/>
    <interval begin="30.00" end="60.00" id="ooood3_0" nVehContrib="5" flow="600.00" occupancy="3.01" speed="38.78" harmonicMeanSpeed="37.45" length="7.00" nVehEntered="5"/>
    <interval begin="30.00" end="60.00" id="ooood3_1" nVehContrib="2" flow="240.00" occupancy="1.20" speed="36.01" harmonicMeanSpeed="34.09" length="6.50" nVehEntered="2"/>
    <interval begin="30.00" end="60.00" id="ooood3_2" nVehContrib="6" flow="720.00" occupancy="3.61" speed="31.39" harmonicMeanSpeed="31.16" length="5.67" nVehEntered="6"/>
    <interval begin="30.00" end="60.00" id="ooood4_0" nVehContrib="2" flow="240.00" occupancy="1.20" speed="41.55" harmonicMeanSpeed="39.89" length="7.50" nVehEntered="2"/>
    <interval begin="30.00" end="60.00" id="ooood4_1" nVehContrib="5" flow="600.00" occupancy="3.01" speed="34.35" harmonicMeanSpeed="32.80" length="6.20" nVehEntered="5"/>
    <interval begin="30.00" end="60.00" id="ooood4_2" nVehContrib="6" flow="720.00" occupancy="3.61" speed="42.47" harmonicMeanSpeed="41.26" length="7.67" nVehEntered="6"/>
    <interval begin="60.00" end="90.00" id="d1_0" nVehContrib="4" flow="480.00" occupancy="11.40" speed="10.19" harmonicMeanSpeed="9.84" length="8.25" nVehEntered="5"/>
    <interval begin="60.00" end="90.00" id="d1_1" nVehContrib="1" flow="120.00" occupancy="1.79" speed="11.18" harmonicMeanSpeed="11.18" length="6.00" nVehEntered="1"/>
    <interval begin="60.00" end="90.00" id="d1_2" nVehContrib="5" flow="600.00" occupancy="12.26" speed="10.35" harmonicMeanSpeed="10.22" length="7.60" nVehEntered="5"/>
    <interval begin="60.00" end="90.00" id="d2_0" nVehContrib="4" flow="480.00" occupancy="8.55" speed="11.18" harmonicMeanSpeed="11.18" length="7.25" nVehEntered="3"/>
    <interval begin="60.00" end="90.00" id="d2_1" nVehContrib="3" flow="360.00" occupancy="5.07" speed="11.18" harmonicMeanSpeed="11.18" length="5.67" nVehEntered="3"/>
    <interval begin="60.00" end="90.00" id="d2_2" nVehContrib="7" flow="840.00" occupancy="22.82" speed="7.72" harmonicMeanSpeed="5.58" length="6.43" nVehEntered="6"/>
    <interval begin="60.00" end="90.00" id="d3_0" nVehContrib="5" flow="600.00" occupancy="9.54" speed="11.18" harmonicMeanSpeed="11.18" length="6.40" nVehEntered="5"/>
    <interval begin="60.00" end="90.00" id="d3_1" nVehContrib="4" flow="480.00" occupancy="9.09" speed="10.50" harmonicMeanSpeed="10.41" length="7.00" nVehEntered="4"/>
    <interval begin="60.00" end="90.00" id="d3_2" nVehContrib="8" flow="960.00" occupancy="56.17" speed="6.80" harmonicMeanSpeed="3.22" length="6.50" nVehEntered="9"/>
    <interval begin="60.00" end="90.00" id="d4_0" nVehContrib="5" flow="600.00" occupancy="11.33" speed="11.18" harmonicMeanSpeed="11.18" length="7.60" nVehEntered="5"/>
    <interval begin="60.00" end="90.00" id="d4_1" nVehContrib="3" flow="360.00" occupancy="5.96" speed="11.18" harmonicMeanSpeed="11.18" length="6.67" nVehEntered="3"/>
    <interval begin="60.00" end="90.00" id="d4_2" nVehContrib="6" flow="720.00" occupancy="36.19" speed="9.34" harmonicMeanSpeed="5.08" length="6.67" nVehEntered="7"/>
    <interval begin="60.00" end="90.00" id="od1_0" nVehContrib="4" flow="480.00" occupancy="8.94" speed="11.18" harmonicMeanSpeed="11.18" length="7.50" nVehEntered="4"/>
    <interval begin="60.00" end="90.00" id="od1_1" nVehContrib="1" flow="120.00" occupancy="1.79" speed="11.18" harmonicMeanSpeed="11.18" length="6.00" nVehEntered="1"/>
    <interval begin="60.00" end="90.00" id="od1_2" nVehContrib="6" flow="720.00" occupancy="13.71" speed="11.18" harmonicMeanSpeed="11.18" length="7.67" nVehEntered="6"/>
    <interval begin="60.00" end="90.00" id="od2_0" nVehContrib="3" flow="360.00" occupancy="6.86" speed="11.18" harmonicMeanSpeed="11.18" length="7.67" nVehEntered="3"/>
    <interval begin="60.00" end="90.00" id="od2_1" nVehContrib="4" flow="480.00" occupancy="6.31" speed="11.18" harmonicMeanSpeed="11.18" length="5.50" nVehEntered="3"/>
    <interval begin="60.00" end="90.00" id="od2_2" nVehContrib="5" flow="600.00" occupancy="9.84" speed="11.18" harmonicMeanSpeed="11.18" length="6.60" nVehEntered="5"/>
    <interval begin="60.00" end="90.00" id="od3_0" nVehContrib="4" flow="480.00" occupancy="7.75" speed="11.18" harmonicMeanSpeed="11.18" length="6.50" nVehEntered="4"/>
    <interval begin="60.00" end="90.00" id="od3_1" nVehContrib="4" flow="480.00" occupancy="8.35" speed="11.18" harmonicMeanSpeed="11.18" length="7.00" nVehEntered="4"/>
    <interval begin="60.00" end="90.00" id="od3_2" nVehContrib="8" flow="960.00" occupancy="16.40" speed="11.18" harmonicMeanSpeed="11.18" length="6.88" nVehEntered="8"/>
    <interval begin="60.00" end="90.00" id="od4_0" nVehContrib="5" flow="600.00" occupancy="11.33" speed="11.18" harmonicMeanSpeed="11.18" length="7.60" nVehEntered="5"/>
    <interval begin="60.00" end="90.00" id="od4_1" nVehContrib="4" flow="480.00" occupancy="5.97" speed="11.18" harmonicMeanSpeed="11.18" length="6.50" nVehEntered="3"/>
    <interval begin="60.00" end="90.00" id="od4_2" nVehContrib="9" flow="1080.00" occupancy="33.49" speed="9.24" harmonicMeanSpeed="5.67" length="6.89" nVehEntered="9"/>
    <interval begin="60.00" end="90.00" id="ood1_0" nVehContrib="4" flow="480.00" occupancy="7.27" speed="11.18" harmonicMeanSpeed="11.18" length="7.50" nVehEntered="3"/>
    <interval begin="60.00" end="90.00" id="ood1_1" nVehContrib="1" flow="120.00" occupancy="1.79" speed="11.18" harmonicMeanSpeed="11.18" length="6.00" nVehEntered="1"/>
    <interval begin="60.00" end="90.00" id="ood1_2" nVehContrib="7" flow="840.00" occupancy="15.50" speed="11.18" harmonicMeanSpeed="11.18" length="7.43" nVehEntered="7"/>
    <interval begin="60.00" end="90.00" id="ood2_0" nVehContrib="3" flow="360.00" occupancy="6.86" speed="11.18" harmonicMeanSpeed="11.18" length="7.67" nVehEntered="3"/>
    <interval begin="60.00" end="90.00" id="ood2_1" nVehContrib="3" flow="360.00" occupancy="5.07" speed="11.18" harmonicMeanSpeed="11.18" length="5.67" nVehEntered="3"/>
    <interval begin="60.00" end="90.00" id="ood2_2" nVehContrib="6" flow="720.00" occupancy="10.26" speed="11.18" harmonicMeanSpeed="11.18" length="6.50" nVehEntered="5"/>
    <interval begin="60.00" end="90.00" id="ood3_0" nVehContrib="4" flow="480.00" occupancy="5.78" speed="11.18" harmonicMeanSpeed="11.18" length="6.50" nVehEntered="3"/>
    <interval begin="60.00" end="90.00" id="ood3_1" nVehContrib="5" flow="600.00" occupancy="9.84" speed="11.18" harmonicMeanSpeed="11.18" length="6.60" nVehEntered="5"/>
    <interval begin="60.00" end="90.00" id="ood3_2" nVehContrib="7" flow="840.00" occupancy="14.31" speed="11.18" harmonicMeanSpeed="11.18" length="6.86" nVehEntered="7"/>
    <interval begin="60.00" end="90.00" id="ood4_0" nVehContrib="5" flow="600.00" occupancy="10.73" speed="11.18" harmonicMeanSpeed="11.18" length="7.20" nVehEntered="5"/>
    <interval begin="60.00" end="90.00" id="ood4_1" nVehContrib="3" flow="360.00" occupancy="5.07" speed="11.18" harmonicMeanSpeed="11.18" length="5.67" nVehEntered="3"/>
    <interval begin="60.00" end="90.00" id="ood4_2" nVehContrib="11" flow="1320.00" occupancy="23.55" speed="10.97" harmonicMeanSpeed="10.93" length="7.00" nVehEntered="11"/>
    <interval begin="60.00" end="90.00" id="oood1_0" nVehContrib="3" flow="360.00" occupancy="7.17" speed="11.16" harmonicMeanSpeed="11.16" length="8.00" nVehEntered="3"/>
    <interval begin="60.00" end="90.00" id="oood1_1" nVehContrib="1" flow="120.00" occupancy="1.79" speed="11.18" harmonicMeanSpeed="11.18" length="6.00" nVehEntered="1"/>
    <interval begin="60.00" end="90.00" id="oood1_2" nVehContrib="8" flow="960.00" occupancy="17.29" speed="11.18" harmonicMeanSpeed="11.18" length="7.25" nVehEntered="8"/>
    <interval begin="60.00" end="90.00" id="oood2_0" nVehContrib="2" flow="240.00" occupancy="5.07" speed="11.18" harmonicMeanSpeed="11.18" length="8.50" nVehEntered="2"/>
    <interval begin="60.00" end="90.00" id="oood2_1" nVehContrib="3" flow="360.00" occupancy="5.07" speed="11.18" harmonicMeanSpeed="11.18" length="5.67" nVehEntered="3"/>
    <interval begin="60.00" end="90.00" id="oood2_2" nVehContrib="6" flow="720.00" occupancy="12.55" speed="11.16" harmonicMeanSpeed="11.16" length="7.00" nVehEntered="6"/>
    <interval begin="60.00" end="90.00" id="oood3_0" nVehContrib="4" flow="480.00" occupancy="8.35" speed="11.18" harmonicMeanSpeed="11.18" length="7.00" nVehEntered="4"/>
    <interval begin="60.00" end="90.00" id="oood3_1" nVehContrib="4" flow="480.00" occupancy="8.05" speed="11.18" harmonicMeanSpeed="11.18" length="6.75" nVehEntered="4"/>
    <interval begin="60.00" end="90.00" id="oood3_2" nVehContrib="7" flow="840.00" occupancy="15.21" speed="11.18" harmonicMeanSpeed="11.18" length="7.29" nVehEntered="7"/>
    <interval begin="60.00" end="90.00" id="oood4_0" nVehContrib="5" flow="600.00" occupancy="10.91" speed="11.16" harmonicMeanSpeed="11.16" length="7.20" nVehEntered="5"/>
    <interval begin="60.00" end="90.00" id="oood4_1" nVehContrib="3" flow="360.00" occupancy="5.07" speed="11.18" harmonicMeanSpeed="11.18" length="5.67" nVehEntered="3"/>
    <interval begin="60.00" end="90.00" id="oood4_2" nVehContrib="11" flow="1320.00" occupancy="23.85" speed="10.82" harmonicMeanSpeed="10.79" length="7.00" nVehEntered="12"/>