<?xml version="1.0" encoding="UTF-8"?>

<!-- generated on 04/19/21 03:01:42 by Eclipse SUMO GUI Version 1.8.0
<configuration xmlns:xsi="http://www.w3.org/2001/XMLSchema-instance" xsi:noNamespaceSchemaLocation="http://sumo.dlr.de/xsd/sumoConfiguration.xsd">

    <input>
        <net-file value="data/lane3_roundabout.net.xml"/>
        <route-files value="data/icacc+.rou.xml"/>
        <additional-files value="data/icacc+.det.xml"/>
    </input>

    <output>
        <tripinfo-output value="tripinfo.xml"/>
    </output>

    <time>
        <begin value="0"/>
        <step-length value="0.1"/>
    </time>

    <processing>
        <collision.mingap-factor value="0"/>
        <time-to-teleport value="-1"/>
        <lanechange.duration value="0.5"/>
    </processing>

    <report>
        <verbose value="true"/>
        <no-step-log value="true"/>
    </report>

    <traci_server>
        <remote-port value="5827"/>
    </traci_server>

    <gui_only>
        <start value="true"/>
        <tracker-interval value="0.1"/>
    </gui_only>

</configuration>
-->

<detector xmlns:xsi="http://www.w3.org/2001/XMLSchema-instance" xsi:noNamespaceSchemaLocation="http://sumo.dlr.de/xsd/det_e1_file.xsd">
    <interval begin="0.00" end="30.00" id="d1_0" nVehContrib="7" flow="840.00" occupancy="20.73" speed="9.87" harmonicMeanSpeed="7.16" length="6.57" nVehEntered="7"/>
    <interval begin="0.00" end="30.00" id="d1_1" nVehContrib="2" flow="240.00" occupancy="3.28" speed="11.18" harmonicMeanSpeed="11.18" length="5.50" nVehEntered="2"/>
    <interval begin="0.00" end="30.00" id="d1_2" nVehContrib="3" flow="360.00" occupancy="7.45" speed="11.18" harmonicMeanSpeed="11.18" length="8.33" nVehEntered="3"/>
    <interval begin="0.00" end="30.00" id="d2_0" nVehContrib="2" flow="240.00" occupancy="5.07" speed="11.18" harmonicMeanSpeed="11.18" length="8.50" nVehEntered="2"/>
    <interval begin="0.00" end="30.00" id="d2_1" nVehContrib="3" flow="360.00" occupancy="5.07" speed="11.18" harmonicMeanSpeed="11.18" length="5.67" nVehEntered="3"/>
    <interval begin="0.00" end="30.00" id="d2_2" nVehContrib="7" flow="840.00" occupancy="16.22" speed="10.90" harmonicMeanSpeed="10.87" length="6.71" nVehEntered="8"/>
    <interval begin="0.00" end="30.00" id="d3_0" nVehContrib="6" flow="720.00" occupancy="23.30" speed="10.28" harmonicMeanSpeed="10.09" length="7.00" nVehEntered="7"/>
    <interval begin="0.00" end="30.00" id="d3_1" nVehContrib="0" flow="0.00" occupancy="0.00" speed="-1.00" harmonicMeanSpeed="-1.00" length="-1.00" nVehEntered="0"/>
    <interval begin="0.00" end="30.00" id="d3_2" nVehContrib="4" flow="480.00" occupancy="8.05" speed="11.18" harmonicMeanSpeed="11.18" length="6.75" nVehEntered="4"/>
    <interval begin="0.00" end="30.00" id="d4_0" nVehContrib="5" flow="600.00" occupancy="11.33" speed="11.18" harmonicMeanSpeed="11.18" length="7.60" nVehEntered="5"/>
    <interval begin="0.00" end="30.00" id="d4_1" nVehContrib="4" flow="480.00" occupancy="9.24" speed="11.18" harmonicMeanSpeed="11.18" length="7.75" nVehEntered="4"/>
    <interval begin="0.00" end="30.00" id="d4_2" nVehContrib="5" flow="600.00" occupancy="11.16" speed="10.87" harmonicMeanSpeed="10.84" length="7.20" nVehEntered="5"/>
    <interval begin="0.00" end="30.00" id="od1_0" nVehContrib="8" flow="960.00" occupancy="15.50" speed="11.18" harmonicMeanSpeed="11.18" length="6.50" nVehEntered="8"/>
    <interval begin="0.00" end="30.00" id="od1_1" nVehContrib="3" flow="360.00" occupancy="5.37" speed="11.18" harmonicMeanSpeed="11.18" length="6.00" nVehEntered="3"/>
    <interval begin="0.00" end="30.00" id="od1_2" nVehContrib="3" flow="360.00" occupancy="7.45" speed="11.18" harmonicMeanSpeed="11.18" length="8.33" nVehEntered="3"/>
    <interval begin="0.00" end="30.00" id="od2_0" nVehContrib="3" flow="360.00" occupancy="7.16" speed="11.18" harmonicMeanSpeed="11.18" length="8.00" nVehEntered="3"/>
    <interval begin="0.00" end="30.00" id="od2_1" nVehContrib="3" flow="360.00" occupancy="5.07" speed="11.18" harmonicMeanSpeed="11.18" length="5.67" nVehEntered="3"/>
    <interval begin="0.00" end="30.00" id="od2_2" nVehContrib="8" flow="960.00" occupancy="17.91" speed="11.18" harmonicMeanSpeed="11.18" length="7.00" nVehEntered="9"/>
    <interval begin="0.00" end="30.00" id="od3_0" nVehContrib="9" flow="1080.00" occupancy="18.46" speed="10.83" harmonicMeanSpeed="10.73" length="6.67" nVehEntered="9"/>
    <interval begin="0.00" end="30.00" id="od3_1" nVehContrib="0" flow="0.00" occupancy="0.00" speed="-1.00" harmonicMeanSpeed="-1.00" length="-1.00" nVehEntered="0"/>
    <interval begin="0.00" end="30.00" id="od3_2" nVehContrib="4" flow="480.00" occupancy="8.05" speed="11.18" harmonicMeanSpeed="11.18" length="6.75" nVehEntered="4"/>
    <interval begin="0.00" end="30.00" id="od4_0" nVehContrib="6" flow="720.00" occupancy="13.12" speed="11.18" harmonicMeanSpeed="11.18" length="7.33" nVehEntered="6"/>
    <interval begin="0.00" end="30.00" id="od4_1" nVehContrib="4" flow="480.00" occupancy="9.24" speed="11.18" harmonicMeanSpeed="11.18" length="7.75" nVehEntered="4"/>
    <interval begin="0.00" end="30.00" id="od4_2" nVehContrib="6" flow="720.00" occupancy="13.42" speed="11.18" harmonicMeanSpeed="11.18" length="7.50" nVehEntered="6"/>
    <interval begin="0.00" end="30.00" id="ood1_0" nVehContrib="9" flow="1080.00" occupancy="16.99" speed="11.18" harmonicMeanSpeed="11.18" length="6.33" nVehEntered="9"/>
    <interval begin="0.00" end="30.00" id="ood1_1" nVehContrib="3" flow="360.00" occupancy="5.37" speed="11.18" harmonicMeanSpeed="11.18" length="6.00" nVehEntered="3"/>
    <interval begin="0.00" end="30.00" id="ood1_2" nVehContrib="4" flow="480.00" occupancy="9.84" speed="11.18" harmonicMeanSpeed="11.18" length="8.25" nVehEntered="4"/>
    <interval begin="0.00" end="30.00" id="ood2_0" nVehContrib="4" flow="480.00" occupancy="9.24" speed="11.18" harmonicMeanSpeed="11.18" length="7.75" nVehEntered="4"/>
    <interval begin="0.00" end="30.00" id="ood2_1" nVehContrib="3" flow="360.00" occupancy="5.07" speed="11.18" harmonicMeanSpeed="11.18" length="5.67" nVehEntered="3"/>
    <interval begin="0.00" end="30.00" id="ood2_2" nVehContrib="9" flow="1080.00" occupancy="18.19" speed="11.18" harmonicMeanSpeed="11.18" length="6.78" nVehEntered="9"/>
    <interval begin="0.00" end="30.00" id="ood3_0" nVehContrib="10" flow="1200.00" occupancy="19.68" speed="11.18" harmonicMeanSpeed="11.18" length="6.60" nVehEntered="10"/>
    <interval begin="0.00" end="30.00" id="ood3_1" nVehContrib="0" flow="0.00" occupancy="0.00" speed="-1.00" harmonicMeanSpeed="-1.00" length="-1.00" nVehEntered="0"/>
    <interval begin="0.00" end="30.00" id="ood3_2" nVehContrib="5" flow="600.00" occupancy="9.54" speed="11.18" harmonicMeanSpeed="11.18" length="6.40" nVehEntered="5"/>
    <interval begin="0.00" end="30.00" id="ood4_0" nVehContrib="6" flow="720.00" occupancy="13.12" speed="11.18" harmonicMeanSpeed="11.18" length="7.33" nVehEntered="6"/>
    <interval begin="0.00" end="30.00" id="ood4_1" nVehContrib="4" flow="480.00" occupancy="9.24" speed="11.18" harmonicMeanSpeed="11.18" length="7.75" nVehEntered="4"/>
    <interval begin="0.00" end="30.00" id="ood4_2" nVehContrib="7" flow="840.00" occupancy="15.21" speed="11.18" harmonicMeanSpeed="11.18" length="7.29" nVehEntered="7"/>
    <interval begin="0.00" end="30.00" id="oood1_0" nVehContrib="10" flow="1200.00" occupancy="19.40" speed="11.17" harmonicMeanSpeed="11.17" length="6.50" nVehEntered="10"/>
    <interval begin="0.00" end="30.00" id="oood1_1" nVehContrib="3" flow="360.00" occupancy="5.37" speed="11.18" harmonicMeanSpeed="11.18" length="6.00" nVehEntered="3"/>
    <interval begin="0.00" end="30.00" id="oood1_2" nVehContrib="6" flow="720.00" occupancy="13.12" speed="11.18" harmonicMeanSpeed="11.18" length="7.33" nVehEntered="6"/>
    <interval begin="0.00" end="30.00" id="oood2_0" nVehContrib="5" flow="600.00" occupancy="10.79" speed="11.12" harmonicMeanSpeed="11.12" length="7.20" nVehEntered="5"/>
    <interval begin="0.00" end="30.00" id="oood2_1" nVehContrib="3" flow="360.00" occupancy="5.07" speed="11.18" harmonicMeanSpeed="11.18" length="5.67" nVehEntered="3"/>
    <interval begin="0.00" end="30.00" id="oood2_2" nVehContrib="9" flow="1080.00" occupancy="18.29" speed="11.11" harmonicMeanSpeed="11.11" length="6.78" nVehEntered="9"/>
    <interval begin="0.00" end="30.00" id="oood3_0" nVehContrib="10" flow="1200.00" occupancy="21.41" speed="11.18" harmonicMeanSpeed="11.18" length="6.60" nVehEntered="11"/>
    <interval begin="0.00" end="30.00" id="oood3_1" nVehContrib="0" flow="0.00" occupancy="0.00" speed="-1.00" harmonicMeanSpeed="-1.00" length="-1.00" nVehEntered="0"/>
    <interval begin="0.00" end="30.00" id="oood3_2" nVehContrib="6" flow="720.00" occupancy="11.03" speed="11.18" harmonicMeanSpeed="11.18" length="6.17" nVehEntered="6"/>
    <interval begin="0.00" end="30.00" id="oood4_0" nVehContrib="7" flow="840.00" occupancy="15.23" speed="11.17" harmonicMeanSpeed="11.17" length="7.14" nVehEntered="8"/>
    <interval begin="0.00" end="30.00" id="oood4_1" nVehContrib="4" flow="480.00" occupancy="9.24" speed="11.18" harmonicMeanSpeed="11.18" length="7.75" nVehEntered="4"/>
    <interval begin="0.00" end="30.00" id="oood4_2" nVehContrib="8" flow="960.00" occupancy="17.92" speed="11.17" harmonicMeanSpeed="11.17" length="7.50" nVehEntered="8"/>
    <interval begin="0.00" end="30.00" id="ooood1_0" nVehContrib="6" flow="720.00" occupancy="3.61" speed="41.55" harmonicMeanSpeed="39.62" length="7.50" nVehEntered="6"/>
    <interval begin="0.00" end="30.00" id="ooood1_1" nVehContrib="7" flow="840.00" occupancy="4.21" speed="37.20" harmonicMeanSpeed="36.08" length="6.71" nVehEntered="7"/>
    <interval begin="0.00" end="30.00" id="ooood1_2" nVehContrib="12" flow="1440.00" occupancy="7.22" speed="37.40" harmonicMeanSpeed="35.97" length="6.75" nVehEntered="12"/>
    <interval begin="0.00" end="30.00" id="ooood2_0" nVehContrib="9" flow="1080.00" occupancy="5.42" speed="36.32" harmonicMeanSpeed="35.31" length="6.56" nVehEntered="9"/>
    <interval begin="0.00" end="30.00" id="ooood2_1" nVehContrib="9" flow="1080.00" occupancy="5.42" speed="38.78" harmonicMeanSpeed="36.45" length="7.00" nVehEntered="9"/>
    <interval begin="0.00" end="30.00" id="ooood2_2" nVehContrib="5" flow="600.00" occupancy="3.01" speed="35.46" harmonicMeanSpeed="33.76" length="6.40" nVehEntered="5"/>
    <interval begin="0.00" end="30.00" id="ooood3_0" nVehContrib="12" flow="1440.00" occupancy="7.22" speed="35.55" harmonicMeanSpeed="33.81" length="6.42" nVehEntered="12"/>
    <interval begin="0.00" end="30.00" id="ooood3_1" nVehContrib="6" flow="720.00" occupancy="3.61" speed="34.16" harmonicMeanSpeed="33.20" length="6.17" nVehEntered="6"/>
    <interval begin="0.00" end="30.00" id="ooood3_2" nVehContrib="5" flow="600.00" occupancy="3.01" speed="39.89" harmonicMeanSpeed="37.07" length="7.20" nVehEntered="5"/>
    <interval begin="0.00" end="30.00" id="ooood4_0" nVehContrib="4" flow="480.00" occupancy="2.41" speed="47.09" harmonicMeanSpeed="46.54" length="8.50" nVehEntered="4"/>
    <interval begin="0.00" end="30.00" id="ooood4_1" nVehContrib="10" flow="1200.00" occupancy="6.02" speed="41.00" harmonicMeanSpeed="40.06" length="7.40" nVehEntered="10"/>
    <interval begin="0.00" end="30.00" id="ooood4_2" nVehContrib="12" flow="1440.00" occupancy="7.22" speed="38.32" harmonicMeanSpeed="36.60" length="6.92" nVehEntered="12"/>
    <interval begin="30.00" end="60.00" id="d1_0" nVehContrib="12" flow="1440.00" occupancy="24.45" speed="11.18" harmonicMeanSpeed="11.18" length="6.83" nVehEntered="12"/>
    <interval begin="30.00" end="60.00" id="d1_1" nVehContrib="6" flow="720.00" occupancy="13.42" speed="11.18" harmonicMeanSpeed="11.18" length="7.50" nVehEntered="6"/>
    <interval begin="30.00" end="60.00" id="d1_2" nVehContrib="6" flow="720.00" occupancy="51.43" speed="7.48" harmonicMeanSpeed="2.77" length="6.67" nVehEntered="6"/>
    <interval begin="30.00" end="60.00" id="d2_0" nVehContrib="13" flow="1560.00" occupancy="24.45" speed="11.18" harmonicMeanSpeed="11.18" length="6.31" nVehEntered="13"/>
    <interval begin="30.00" end="60.00" id="d2_1" nVehContrib="3" flow="360.00" occupancy="7.45" speed="11.18" harmonicMeanSpeed="11.18" length="8.33" nVehEntered="3"/>
    <interval begin="30.00" end="60.00" id="d2_2" nVehContrib="4" flow="480.00" occupancy="85.51" speed="8.30" harmonicMeanSpeed="2.02" length="6.25" nVehEntered="4"/>
    <interval begin="30.00" end="60.00" id="d3_0" nVehContrib="10" flow="1200.00" occupancy="41.68" speed="10.13" harmonicMeanSpeed="3.58" length="6.60" nVehEntered="9"/>
    <interval begin="30.00" end="60.00" id="d3_1" nVehContrib="3" flow="360.00" occupancy="5.96" speed="11.18" harmonicMeanSpeed="11.18" length="6.67" nVehEntered="3"/>
    <interval begin="30.00" end="60.00" id="d3_2" nVehContrib="6" flow="720.00" occupancy="45.10" speed="11.04" harmonicMeanSpeed="11.03" length="6.50" nVehEntered="7"/>
    <interval begin="30.00" end="60.00" id="d4_0" nVehContrib="13" flow="1560.00" occupancy="30.14" speed="10.56" harmonicMeanSpeed="10.44" length="7.23" nVehEntered="13"/>
    <interval begin="30.00" end="60.00" id="d4_1" nVehContrib="1" flow="120.00" occupancy="2.68" speed="11.18" harmonicMeanSpeed="11.18" length="9.00" nVehEntered="1"/>
    <interval begin="30.00" end="60.00" id="d4_2" nVehContrib="4" flow="480.00" occupancy="85.40" speed="6.81" harmonicMeanSpeed="3.91" length="7.25" nVehEntered="5"/>
    <interval begin="30.00" end="60.00" id="od1_0" nVehContrib="11" flow="1320.00" occupancy="24.12" speed="11.18" harmonicMeanSpeed="11.18" length="6.91" nVehEntered="12"/>
    <interval begin="30.00" end="60.00" id="od1_1" nVehContrib="5" flow="600.00" occupancy="11.33" speed="11.18" harmonicMeanSpeed="11.18" length="7.60" nVehEntered="5"/>
    <interval begin="30.00" end="60.00" id="od1_2" nVehContrib="7" flow="840.00" occupancy="14.91" speed="11.00" harmonicMeanSpeed="10.98" length="7.00" nVehEntered="7"/>
    <interval begin="30.00" end="60.00" id="od2_0" nVehContrib="13" flow="1560.00" occupancy="23.85" speed="11.18" harmonicMeanSpeed="11.18" length="6.15" nVehEntered="13"/>
    <interval begin="30.00" end="60.00" id="od2_1" nVehContrib="3" flow="360.00" occupancy="7.45" speed="11.18" harmonicMeanSpeed="11.18" length="8.33" nVehEntered="3"/>
    <interval begin="30.00" end="60.00" id="od2_2" nVehContrib="6" flow="720.00" occupancy="12.03" speed="10.41" harmonicMeanSpeed="10.20" length="6.67" nVehEntered="5"/>
    <interval begin="30.00" end="60.00" id="od3_0" nVehContrib="8" flow="960.00" occupancy="35.64" speed="9.90" harmonicMeanSpeed="4.81" length="7.00" nVehEntered="8"/>
    <interval begin="30.00" end="60.00" id="od3_1" nVehContrib="3" flow="360.00" occupancy="5.96" speed="11.18" harmonicMeanSpeed="11.18" length="6.67" nVehEntered="3"/>
    <interval begin="30.00" end="60.00" id="od3_2" nVehContrib="9" flow="1080.00" occupancy="25.72" speed="10.90" harmonicMeanSpeed="10.84" length="6.33" nVehEntered="10"/>
    <interval begin="30.00" end="60.00" id="od4_0" nVehContrib="13" flow="1560.00" occupancy="28.09" speed="11.11" harmonicMeanSpeed="11.10" length="7.15" nVehEntered="14"/>
    <interval begin="30.00" end="60.00" id="od4_1" nVehContrib="1" flow="120.00" occupancy="2.68" speed="11.18" harmonicMeanSpeed="11.18" length="9.00" nVehEntered="1"/>
    <interval begin="30.00" end="60.00" id="od4_2" nVehContrib="6" flow="720.00" occupancy="18.92" speed="9.15" harmonicMeanSpeed="7.60" length="6.67" nVehEntered="6"/>
    <interval begin="30.00" end="60.00" id="ood1_0" nVehContrib="11" flow="1320.00" occupancy="23.55" speed="11.18" harmonicMeanSpeed="11.18" length="7.18" nVehEntered="11"/>
    <interval begin="30.00" end="60.00" id="ood1_1" nVehContrib="5" flow="600.00" occupancy="11.67" speed="11.18" harmonicMeanSpeed="11.18" length="7.60" nVehEntered="6"/>
    <interval begin="30.00" end="60.00" id="ood1_2" nVehContrib="7" flow="840.00" occupancy="13.71" speed="11.18" harmonicMeanSpeed="11.18" length="6.57" nVehEntered="7"/>
    <interval begin="30.00" end="60.00" id="ood2_0" nVehContrib="13" flow="1560.00" occupancy="24.15" speed="11.18" harmonicMeanSpeed="11.18" length="6.23" nVehEntered="13"/>
    <interval begin="30.00" end="60.00" id="ood2_1" nVehContrib="3" flow="360.00" occupancy="7.45" speed="11.18" harmonicMeanSpeed="11.18" length="8.33" nVehEntered="3"/>
    <interval begin="30.00" end="60.00" id="ood2_2" nVehContrib="6" flow="720.00" occupancy="12.22" speed="11.18" harmonicMeanSpeed="11.18" length="6.83" nVehEntered="6"/>
    <interval begin="30.00" end="60.00" id="ood3_0" nVehContrib="8" flow="960.00" occupancy="17.29" speed="11.18" harmonicMeanSpeed="11.18" length="7.25" nVehEntered="8"/>
    <interval begin="30.00" end="60.00" id="ood3_1" nVehContrib="4" flow="480.00" occupancy="8.35" speed="11.18" harmonicMeanSpeed="11.18" length="7.00" nVehEntered="4"/>
    <interval begin="30.00" end="60.00" id="ood3_2" nVehContrib="10" flow="1200.00" occupancy="19.78" speed="11.12" harmonicMeanSpeed="11.12" length="6.60" nVehEntered="10"/>
    <interval begin="30.00" end="60.00" id="ood4_0" nVehContrib="14" flow="1680.00" occupancy="31.08" speed="11.18" harmonicMeanSpeed="11.18" length="7.21" nVehEntered="15"/>
    <interval begin="30.00" end="60.00" id="ood4_1" nVehContrib="1" flow="120.00" occupancy="2.68" speed="11.18" harmonicMeanSpeed="11.18" length="9.00" nVehEntered="1"/>
    <interval begin="30.00" end="60.00" id="ood4_2" nVehContrib="7" flow="840.00" occupancy="55.09" speed="10.48" harmonicMeanSpeed="10.29" length="7.00" nVehEntered="8"/>
    <interval begin="30.00" end="60.00" id="oood1_0" nVehContrib="11" flow="1320.00" occupancy="23.53" speed="11.04" harmonicMeanSpeed="11.04" length="7.09" nVehEntered="11"/>
    <interval begin="30.00" end="60.00" id="oood1_1" nVehContrib="6" flow="720.00" occupancy="13.12" speed="11.18" harmonicMeanSpeed="11.18" length="7.33" nVehEntered="6"/>
    <interval begin="30.00" end="60.00" id="oood1_2" nVehContrib="6" flow="720.00" occupancy="12.34" speed="11.08" harmonicMeanSpeed="11.08" length="6.83" nVehEntered="6"/>
    <interval begin="30.00" end="60.00" id="oood2_0" nVehContrib="13" flow="1560.00" occupancy="25.56" speed="10.97" harmonicMeanSpeed="10.96" length="6.38" nVehEntered="14"/>
    <interval begin="30.00" end="60.00" id="oood2_1" nVehContrib="3" flow="360.00" occupancy="7.45" speed="11.18" harmonicMeanSpeed="11.18" length="8.33" nVehEntered="3"/>
    <interval begin="30.00" end="60.00" id="oood2_2" nVehContrib="6" flow="720.00" occupancy="12.22" speed="11.18" harmonicMeanSpeed="11.18" length="6.83" nVehEntered="6"/>
    <interval begin="30.00" end="60.00" id="oood3_0" nVehContrib="9" flow="1080.00" occupancy="18.08" speed="10.99" harmonicMeanSpeed="10.98" length="7.22" nVehEntered="8"/>
    <interval begin="30.00" end="60.00" id="oood3_1" nVehContrib="5" flow="600.00" occupancy="10.15" speed="11.16" harmonicMeanSpeed="11.16" length="6.80" nVehEntered="5"/>
    <interval begin="30.00" end="60.00" id="oood3_2" nVehContrib="10" flow="1200.00" occupancy="21.31" speed="10.96" harmonicMeanSpeed="10.93" length="7.00" nVehEntered="10"/>
    <interval begin="30.00" end="60.00" id="oood4_0" nVehContrib="14" flow="1680.00" occupancy="30.42" speed="11.18" harmonicMeanSpeed="11.18" length="7.29" nVehEntered="14"/>
    <interval begin="30.00" end="60.00" id="oood4_1" nVehContrib="1" flow="120.00" occupancy="2.68" speed="11.18" harmonicMeanSpeed="11.18" length="9.00" nVehEntered="1"/>
    <interval begin="30.00" end="60.00" id="oood4_2" nVehContrib="9" flow="1080.00" occupancy="18.14" speed="10.71" harmonicMeanSpeed="10.52" length="6.44" nVehEntered="9"/>
    <interval begin="30.00" end="60.00" id="ooood1_0" nVehContrib="5" flow="600.00" occupancy="3.01" speed="43.21" harmonicMeanSpeed="42.83" length="7.80" nVehEntered="5"/>
    <interval begin="30.00" end="60.00" id="ooood1_1" nVehContrib="10" flow="1200.00" occupancy="6.02" speed="35.46" harmonicMeanSpeed="34.49" length="6.40" nVehEntered="10"/>
    <interval begin="30.00" end="60.00" id="ooood1_2" nVehContrib="9" flow="1080.00" occupancy="5.42" speed="40.01" harmonicMeanSpeed="38.61" length="7.22" nVehEntered="9"/>
    <interval begin="30.00" end="60.00" id="ooood2_0" nVehContrib="5" flow="600.00" occupancy="3.01" speed="38.78" harmonicMeanSpeed="37.65" length="7.00" nVehEntered="5"/>
    <interval begin="30.00" end="60.00" id="ooood2_1" nVehContrib="8" flow="960.00" occupancy="4.81" speed="36.01" harmonicMeanSpeed="34.50" length="6.50" nVehEntered="8"/>
    <interval begin="30.00" end="60.00" id="ooood2_2" nVehContrib="9" flow="1080.00" occupancy="5.42" speed="41.24" harmonicMeanSpeed="40.03" length="7.44" nVehEntered="9"/>
    <interval begin="30.00" end="60.00" id="ooood3_0" nVehContrib="5" flow="600.00" occupancy="3.01" speed="39.89" harmonicMeanSpeed="37.86" length="7.20" nVehEntered="5"/>
    <interval begin="30.00" end="60.00" id="ooood3_1" nVehContrib="11" flow="1320.00" occupancy="6.62" speed="38.78" harmonicMeanSpeed="37.38" length="7.00" nVehEntered="11"/>
    <interval begin="30.00" end="60.00" id="ooood3_2" nVehContrib="9" flow="1080.00" occupancy="5.42" speed="40.01" harmonicMeanSpeed="38.16" length="7.22" nVehEntered="9"/>
    <interval begin="30.00" end="60.00" id="ooood4_0" nVehContrib="8" flow="960.00" occupancy="4.81" speed="39.47" harmonicMeanSpeed="37.63" length="7.13" nVehEntered="8"/>
    <interval begin="30.00" end="60.00" id="ooood4_1" nVehContrib="8" flow="960.00" occupancy="4.81" speed="38.78" harmonicMeanSpeed="36.76" length="7.00" nVehEntered="8"/>
    <interval begin="30.00" end="60.00" id="ooood4_2" nVehContrib="10" flow="1200.00" occupancy="6.02" speed="38.23" harmonicMeanSpeed="36.57" length="6.90" nVehEntered="10"/>
    <interval begin="60.00" end="90.00" id="d1_0" nVehContrib="2" flow="240.00" occupancy="81.23" speed="10.44" harmonicMeanSpeed="10.39" length="7.50" nVehEntered="3"/>
    <interval begin="60.00" end="90.00" id="d1_1" nVehContrib="2" flow="240.00" occupancy="54.53" speed="10.73" harmonicMeanSpeed="10.71" length="7.50" nVehEntered="3"/>
    <interval begin="60.00" end="90.00" id="d1_2" nVehContrib="3" flow="360.00" occupancy="86.04" speed="7.52" harmonicMeanSpeed="1.74" length="6.67" nVehEntered="4"/>
    <interval begin="60.00" end="90.00" id="d2_0" nVehContrib="11" flow="1320.00" occupancy="26.58" speed="10.87" harmonicMeanSpeed="10.80" length="7.27" nVehEntered="12"/>
    <interval begin="60.00" end="90.00" id="d2_1" nVehContrib="3" flow="360.00" occupancy="6.26" speed="11.18" harmonicMeanSpeed="11.18" length="7.00" nVehEntered="3"/>
    <interval begin="60.00" end="90.00" id="d2_2" nVehContrib="3" flow="360.00" occupancy="96.46" speed="3.86" harmonicMeanSpeed="0.83" length="8.00" nVehEntered="3"/>
    <interval begin="60.00" end="90.00" id="d3_0" nVehContrib="13" flow="1560.00" occupancy="25.74" speed="10.99" harmonicMeanSpeed="10.97" length="6.54" nVehEntered="13"/>
    <interval begin="60.00" end="90.00" id="d3_1" nVehContrib="4" flow="480.00" occupancy="47.45" speed="10.28" harmonicMeanSpeed="9.99" length="7.50" nVehEntered="5"/>
    <interval begin="60.00" end="90.00" id="d3_2" nVehContrib="5" flow="600.00" occupancy="94.97" speed="6.81" harmonicMeanSpeed="0.89" length="6.40" nVehEntered="5"/>
    <interval begin="60.00" end="90.00" id="d4_0" nVehContrib="13" flow="1560.00" occupancy="26.83" speed="11.18" harmonicMeanSpeed="11.18" length="6.92" nVehEntered="13"/>
    <interval begin="60.00" end="90.00" id="d4_1" nVehContrib="4" flow="480.00" occupancy="9.36" speed="10.25" harmonicMeanSpeed="10.17" length="7.25" nVehEntered="4"/>
    <interval begin="60.00" end="90.00" id="d4_2" nVehContrib="4" flow="480.00" occupancy="96.30" speed="5.66" harmonicMeanSpeed="0.57" length="7.25" nVehEntered="4"/>
    <interval begin="60.00" end="90.00" id="od1_0" nVehContrib="4" flow="480.00" occupancy="74.94" speed="11.17" harmonicMeanSpeed="11.17" length="7.25" nVehEntered="4"/>
    <interval begin="60.00" end="90.00" id="od1_1" nVehContrib="4" flow="480.00" occupancy="9.61" speed="11.11" harmonicMeanSpeed="11.11" length="8.00" nVehEntered="4"/>
    <interval begin="60.00" end="90.00" id="od1_2" nVehContrib="5" flow="600.00" occupancy="74.32" speed="8.67" harmonicMeanSpeed="3.90" length="6.20" nVehEntered="6"/>
    <interval begin="60.00" end="90.00" id="od2_0" nVehContrib="11" flow="1320.00" occupancy="26.03" speed="11.16" harmonicMeanSpeed="11.16" length="7.55" nVehEntered="12"/>
    <interval begin="60.00" end="90.00" id="od2_1" nVehContrib="3" flow="360.00" occupancy="6.26" speed="11.18" harmonicMeanSpeed="11.18" length="7.00" nVehEntered="3"/>
    <interval begin="60.00" end="90.00" id="od2_2" nVehContrib="3" flow="360.00" occupancy="13.58" speed="7.07" harmonicMeanSpeed="4.21" length="6.67" nVehEntered="3"/>
    <interval begin="60.00" end="90.00" id="od3_0" nVehContrib="12" flow="1440.00" occupancy="22.96" speed="11.18" harmonicMeanSpeed="11.18" length="6.42" nVehEntered="12"/>
    <interval begin="60.00" end="90.00" id="od3_1" nVehContrib="6" flow="720.00" occupancy="14.85" speed="11.18" harmonicMeanSpeed="11.18" length="7.33" nVehEntered="7"/>
    <interval begin="60.00" end="90.00" id="od3_2" nVehContrib="4" flow="480.00" occupancy="43.65" speed="8.38" harmonicMeanSpeed="3.82" length="7.75" nVehEntered="4"/>
    <interval begin="60.00" end="90.00" id="od4_0" nVehContrib="13" flow="1560.00" occupancy="27.88" speed="11.18" harmonicMeanSpeed="11.18" length="7.23" nVehEntered="12"/>
    <interval begin="60.00" end="90.00" id="od4_1" nVehContrib="4" flow="480.00" occupancy="8.72" speed="11.10" harmonicMeanSpeed="11.10" length="7.25" nVehEntered="4"/>
    <interval begin="60.00" end="90.00" id="od4_2" nVehContrib="4" flow="480.00" occupancy="9.48" speed="10.11" harmonicMeanSpeed="9.98" length="7.00" nVehEntered="4"/>
    <interval begin="60.00" end="90.00" id="ood1_0" nVehContrib="6" flow="720.00" occupancy="66.13" speed="10.44" harmonicMeanSpeed="10.29" length="6.83" nVehEntered="7"/>
    <interval begin="60.00" end="90.00" id="ood1_1" nVehContrib="4" flow="480.00" occupancy="9.20" speed="11.18" harmonicMeanSpeed="11.18" length="8.00" nVehEntered="3"/>
    <interval begin="60.00" end="90.00" id="ood1_2" nVehContrib="6" flow="720.00" occupancy="71.09" speed="9.70" harmonicMeanSpeed="7.20" length="7.00" nVehEntered="7"/>
    <interval begin="60.00" end="90.00" id="ood2_0" nVehContrib="11" flow="1320.00" occupancy="24.75" speed="11.18" harmonicMeanSpeed="11.18" length="7.55" nVehEntered="11"/>
    <interval begin="60.00" end="90.00" id="ood2_1" nVehContrib="3" flow="360.00" occupancy="6.26" speed="11.18" harmonicMeanSpeed="11.18" length="7.00" nVehEntered="3"/>
    <interval begin="60.00" end="90.00" id="ood2_2" nVehContrib="3" flow="360.00" occupancy="5.67" speed="11.17" harmonicMeanSpeed="11.17" length="6.33" nVehEntered="3"/>
    <interval begin="60.00" end="90.00" id="ood3_0" nVehContrib="12" flow="1440.00" occupancy="22.66" speed="11.18" harmonicMeanSpeed="11.18" length="6.33" nVehEntered="12"/>
    <interval begin="60.00" end="90.00" id="ood3_1" nVehContrib="7" flow="840.00" occupancy="14.63" speed="11.16" harmonicMeanSpeed="11.16" length="7.00" nVehEntered="7"/>
    <interval begin="60.00" end="90.00" id="ood3_2" nVehContrib="5" flow="600.00" occupancy="64.57" speed="7.56" harmonicMeanSpeed="2.59" length="7.60" nVehEntered="6"/>
    <interval begin="60.00" end="90.00" id="ood4_0" nVehContrib="12" flow="1440.00" occupancy="26.85" speed="11.18" harmonicMeanSpeed="11.18" length="7.17" nVehEntered="12"/>
    <interval begin="60.00" end="90.00" id="ood4_1" nVehContrib="5" flow="600.00" occupancy="10.44" speed="11.18" harmonicMeanSpeed="11.18" length="7.00" nVehEntered="5"/>
    <interval begin="60.00" end="90.00" id="ood4_2" nVehContrib="4" flow="480.00" occupancy="95.24" speed="5.59" harmonicMeanSpeed="0.64" length="6.75" nVehEntered="3"/>
    <interval begin="60.00" end="90.00" id="oood1_0" nVehContrib="8" flow="960.00" occupancy="46.23" speed="10.64" harmonicMeanSpeed="10.53" length="6.50" nVehEntered="9"/>
    <interval begin="60.00" end="90.00" id="oood1_1" nVehContrib="3" flow="360.00" occupancy="7.75" speed="11.18" harmonicMeanSpeed="11.18" length="8.67" nVehEntered="3"/>
    <interval begin="60.00" end="90.00" id="oood1_2" nVehContrib="8" flow="960.00" occupancy="17.41" speed="10.64" harmonicMeanSpeed="10.50" length="6.88" nVehEntered="8"/>
    <interval begin="60.00" end="90.00" id="oood2_0" nVehContrib="11" flow="1320.00" occupancy="24.64" speed="11.09" harmonicMeanSpeed="11.09" length="7.55" nVehEntered="10"/>
    <interval begin="60.00" end="90.00" id="oood2_1" nVehContrib="3" flow="360.00" occupancy="6.26" speed="11.18" harmonicMeanSpeed="11.18" length="7.00" nVehEntered="3"/>
    <interval begin="60.00" end="90.00" id="oood2_2" nVehContrib="3" flow="360.00" occupancy="5.70" speed="11.10" harmonicMeanSpeed="11.10" length="6.33" nVehEntered="3"/>
    <interval begin="60.00" end="90.00" id="oood3_0" nVehContrib="12" flow="1440.00" occupancy="23.35" speed="11.04" harmonicMeanSpeed="11.04" length="6.17" nVehEntered="13"/>
    <interval begin="60.00" end="90.00" id="oood3_1" nVehContrib="6" flow="720.00" occupancy="12.95" speed="11.09" harmonicMeanSpeed="11.09" length="7.17" nVehEntered="6"/>
    <interval begin="60.00" end="90.00" id="oood3_2" nVehContrib="6" flow="720.00" occupancy="35.92" speed="9.95" harmonicMeanSpeed="9.75" length="7.17" nVehEntered="7"/>
    <interval begin="60.00" end="90.00" id="oood4_0" nVehContrib="13" flow="1560.00" occupancy="27.55" speed="10.98" harmonicMeanSpeed="10.97" length="7.08" nVehEntered="12"/>
    <interval begin="60.00" end="90.00" id="oood4_1" nVehContrib="5" flow="600.00" occupancy="10.82" speed="10.79" harmonicMeanSpeed="10.72" length="7.00" nVehEntered="5"/>