<?xml version="1.0" encoding="UTF-8"?>

<!-- generated on 04/24/21 19:17:29 by Eclipse SUMO GUI Version 1.8.0
<configuration xmlns:xsi="http://www.w3.org/2001/XMLSchema-instance" xsi:noNamespaceSchemaLocation="http://sumo.dlr.de/xsd/sumoConfiguration.xsd">

    <input>
        <net-file value="data/lane3.net.xml"/>
        <route-files value="data/icacc+.rou.xml"/>
        <additional-files value="data/icacc+.det.xml"/>
    </input>

    <output>
        <tripinfo-output value="tripinfo.xml"/>
    </output>

    <time>
        <begin value="0"/>
        <step-length value="0.1"/>
    </time>

    <processing>
        <collision.mingap-factor value="0"/>
        <time-to-teleport value="-1"/>
        <lanechange.duration value="0.5"/>
    </processing>

    <report>
        <verbose value="true"/>
        <no-step-log value="true"/>
    </report>

    <traci_server>
        <remote-port value="4645"/>
    </traci_server>

    <gui_only>
        <start value="true"/>
        <tracker-interval value="0.1"/>
    </gui_only>

</configuration>
-->

<detector xmlns:xsi="http://www.w3.org/2001/XMLSchema-instance" xsi:noNamespaceSchemaLocation="http://sumo.dlr.de/xsd/det_e1_file.xsd">
    <interval begin="0.00" end="30.00" id="d1_0" nVehContrib="4" flow="480.00" occupancy="7.75" speed="11.18" harmonicMeanSpeed="11.18" length="6.50" nVehEntered="4"/>
    <interval begin="0.00" end="30.00" id="d1_1" nVehContrib="2" flow="240.00" occupancy="5.07" speed="11.18" harmonicMeanSpeed="11.18" length="8.50" nVehEntered="2"/>
    <interval begin="0.00" end="30.00" id="d1_2" nVehContrib="5" flow="600.00" occupancy="20.07" speed="9.89" harmonicMeanSpeed="9.72" length="7.80" nVehEntered="6"/>
    <interval begin="0.00" end="30.00" id="d2_0" nVehContrib="4" flow="480.00" occupancy="21.76" speed="10.89" harmonicMeanSpeed="10.87" length="7.00" nVehEntered="5"/>
    <interval begin="0.00" end="30.00" id="d2_1" nVehContrib="0" flow="0.00" occupancy="0.00" speed="-1.00" harmonicMeanSpeed="-1.00" length="-1.00" nVehEntered="0"/>
    <interval begin="0.00" end="30.00" id="d2_2" nVehContrib="5" flow="600.00" occupancy="20.03" speed="10.77" harmonicMeanSpeed="10.74" length="7.00" nVehEntered="6"/>
    <interval begin="0.00" end="30.00" id="d3_0" nVehContrib="0" flow="0.00" occupancy="0.00" speed="-1.00" harmonicMeanSpeed="-1.00" length="-1.00" nVehEntered="0"/>
    <interval begin="0.00" end="30.00" id="d3_1" nVehContrib="2" flow="240.00" occupancy="4.77" speed="11.18" harmonicMeanSpeed="11.18" length="8.00" nVehEntered="2"/>
    <interval begin="0.00" end="30.00" id="d3_2" nVehContrib="5" flow="600.00" occupancy="25.95" speed="10.33" harmonicMeanSpeed="10.15" length="6.80" nVehEntered="6"/>
    <interval begin="0.00" end="30.00" id="d4_0" nVehContrib="3" flow="360.00" occupancy="5.96" speed="11.18" harmonicMeanSpeed="11.18" length="6.67" nVehEntered="3"/>
    <interval begin="0.00" end="30.00" id="d4_1" nVehContrib="1" flow="120.00" occupancy="2.68" speed="11.18" harmonicMeanSpeed="11.18" length="9.00" nVehEntered="1"/>
    <interval begin="0.00" end="30.00" id="d4_2" nVehContrib="6" flow="720.00" occupancy="12.02" speed="10.80" harmonicMeanSpeed="10.72" length="6.33" nVehEntered="6"/>
    <interval begin="0.00" end="30.00" id="od1_0" nVehContrib="4" flow="480.00" occupancy="7.75" speed="11.18" harmonicMeanSpeed="11.18" length="6.50" nVehEntered="4"/>
    <interval begin="0.00" end="30.00" id="od1_1" nVehContrib="3" flow="360.00" occupancy="7.45" speed="11.18" harmonicMeanSpeed="11.18" length="8.33" nVehEntered="3"/>
    <interval begin="0.00" end="30.00" id="od1_2" nVehContrib="7" flow="840.00" occupancy="16.23" speed="10.96" harmonicMeanSpeed="10.93" length="7.57" nVehEntered="7"/>
    <interval begin="0.00" end="30.00" id="od2_0" nVehContrib="5" flow="600.00" occupancy="10.44" speed="11.18" harmonicMeanSpeed="11.18" length="7.00" nVehEntered="5"/>
    <interval begin="0.00" end="30.00" id="od2_1" nVehContrib="1" flow="120.00" occupancy="1.49" speed="11.18" harmonicMeanSpeed="11.18" length="5.00" nVehEntered="1"/>
    <interval begin="0.00" end="30.00" id="od2_2" nVehContrib="6" flow="720.00" occupancy="13.88" speed="10.87" harmonicMeanSpeed="10.82" length="7.17" nVehEntered="7"/>
    <interval begin="0.00" end="30.00" id="od3_0" nVehContrib="0" flow="0.00" occupancy="0.00" speed="-1.00" harmonicMeanSpeed="-1.00" length="-1.00" nVehEntered="0"/>
    <interval begin="0.00" end="30.00" id="od3_1" nVehContrib="3" flow="360.00" occupancy="6.26" speed="11.18" harmonicMeanSpeed="11.18" length="7.00" nVehEntered="3"/>
    <interval begin="0.00" end="30.00" id="od3_2" nVehContrib="8" flow="960.00" occupancy="18.64" speed="10.49" harmonicMeanSpeed="10.02" length="7.00" nVehEntered="8"/>
    <interval begin="0.00" end="30.00" id="od4_0" nVehContrib="4" flow="480.00" occupancy="8.35" speed="11.18" harmonicMeanSpeed="11.18" length="7.00" nVehEntered="4"/>
    <interval begin="0.00" end="30.00" id="od4_1" nVehContrib="1" flow="120.00" occupancy="2.68" speed="11.18" harmonicMeanSpeed="11.18" length="9.00" nVehEntered="1"/>
    <interval begin="0.00" end="30.00" id="od4_2" nVehContrib="6" flow="720.00" occupancy="11.33" speed="11.18" harmonicMeanSpeed="11.18" length="6.33" nVehEntered="6"/>
    <interval begin="0.00" end="30.00" id="ood1_0" nVehContrib="5" flow="600.00" occupancy="10.14" speed="11.18" harmonicMeanSpeed="11.18" length="6.80" nVehEntered="5"/>
    <interval begin="0.00" end="30.00" id="ood1_1" nVehContrib="3" flow="360.00" occupancy="7.45" speed="11.18" harmonicMeanSpeed="11.18" length="8.33" nVehEntered="3"/>
    <interval begin="0.00" end="30.00" id="ood1_2" nVehContrib="7" flow="840.00" occupancy="15.80" speed="11.18" harmonicMeanSpeed="11.18" length="7.57" nVehEntered="7"/>
    <interval begin="0.00" end="30.00" id="ood2_0" nVehContrib="6" flow="720.00" occupancy="12.22" speed="11.18" harmonicMeanSpeed="11.18" length="6.83" nVehEntered="6"/>
    <interval begin="0.00" end="30.00" id="ood2_1" nVehContrib="1" flow="120.00" occupancy="1.49" speed="11.18" harmonicMeanSpeed="11.18" length="5.00" nVehEntered="1"/>
    <interval begin="0.00" end="30.00" id="ood2_2" nVehContrib="7" flow="840.00" occupancy="14.31" speed="11.18" harmonicMeanSpeed="11.18" length="6.86" nVehEntered="7"/>
    <interval begin="0.00" end="30.00" id="ood3_0" nVehContrib="0" flow="0.00" occupancy="0.00" speed="-1.00" harmonicMeanSpeed="-1.00" length="-1.00" nVehEntered="0"/>
    <interval begin="0.00" end="30.00" id="ood3_1" nVehContrib="3" flow="360.00" occupancy="6.26" speed="11.18" harmonicMeanSpeed="11.18" length="7.00" nVehEntered="3"/>
    <interval begin="0.00" end="30.00" id="ood3_2" nVehContrib="9" flow="1080.00" occupancy="18.49" speed="11.18" harmonicMeanSpeed="11.18" length="6.89" nVehEntered="9"/>
    <interval begin="0.00" end="30.00" id="ood4_0" nVehContrib="5" flow="600.00" occupancy="10.14" speed="11.18" harmonicMeanSpeed="11.18" length="6.80" nVehEntered="5"/>
    <interval begin="0.00" end="30.00" id="ood4_1" nVehContrib="1" flow="120.00" occupancy="2.68" speed="11.18" harmonicMeanSpeed="11.18" length="9.00" nVehEntered="1"/>
    <interval begin="0.00" end="30.00" id="ood4_2" nVehContrib="7" flow="840.00" occupancy="14.01" speed="11.18" harmonicMeanSpeed="11.18" length="6.71" nVehEntered="7"/>
    <interval begin="0.00" end="30.00" id="oood1_0" nVehContrib="6" flow="720.00" occupancy="11.63" speed="11.18" harmonicMeanSpeed="11.18" length="6.50" nVehEntered="6"/>
    <interval begin="0.00" end="30.00" id="oood1_1" nVehContrib="3" flow="360.00" occupancy="7.45" speed="11.18" harmonicMeanSpeed="11.18" length="8.33" nVehEntered="3"/>
    <interval begin="0.00" end="30.00" id="oood1_2" nVehContrib="8" flow="960.00" occupancy="18.19" speed="11.18" harmonicMeanSpeed="11.18" length="7.63" nVehEntered="8"/>
    <interval begin="0.00" end="30.00" id="oood2_0" nVehContrib="7" flow="840.00" occupancy="14.31" speed="11.18" harmonicMeanSpeed="11.18" length="6.86" nVehEntered="7"/>
    <interval begin="0.00" end="30.00" id="oood2_1" nVehContrib="1" flow="120.00" occupancy="1.49" speed="11.18" harmonicMeanSpeed="11.18" length="5.00" nVehEntered="1"/>
    <interval begin="0.00" end="30.00" id="oood2_2" nVehContrib="7" flow="840.00" occupancy="14.31" speed="11.18" harmonicMeanSpeed="11.18" length="6.86" nVehEntered="7"/>
    <interval begin="0.00" end="30.00" id="oood3_0" nVehContrib="1" flow="120.00" occupancy="1.79" speed="11.18" harmonicMeanSpeed="11.18" length="6.00" nVehEntered="1"/>
    <interval begin="0.00" end="30.00" id="oood3_1" nVehContrib="3" flow="360.00" occupancy="6.28" speed="11.14" harmonicMeanSpeed="11.14" length="7.00" nVehEntered="3"/>
    <interval begin="0.00" end="30.00" id="oood3_2" nVehContrib="10" flow="1200.00" occupancy="20.60" speed="11.16" harmonicMeanSpeed="11.16" length="6.90" nVehEntered="10"/>
    <interval begin="0.00" end="30.00" id="oood4_0" nVehContrib="6" flow="720.00" occupancy="12.23" speed="11.17" harmonicMeanSpeed="11.17" length="6.83" nVehEntered="6"/>
    <interval begin="0.00" end="30.00" id="oood4_1" nVehContrib="1" flow="120.00" occupancy="2.68" speed="11.18" harmonicMeanSpeed="11.18" length="9.00" nVehEntered="1"/>
    <interval begin="0.00" end="30.00" id="oood4_2" nVehContrib="8" flow="960.00" occupancy="16.40" speed="11.18" harmonicMeanSpeed="11.18" length="6.88" nVehEntered="8"/>
    <interval begin="0.00" end="30.00" id="ooood1_0" nVehContrib="10" flow="1200.00" occupancy="6.02" speed="39.89" harmonicMeanSpeed="38.74" length="7.20" nVehEntered="10"/>
    <interval begin="0.00" end="30.00" id="ooood1_1" nVehContrib="5" flow="600.00" occupancy="3.01" speed="41.00" harmonicMeanSpeed="39.35" length="7.40" nVehEntered="5"/>
    <interval begin="0.00" end="30.00" id="ooood1_2" nVehContrib="4" flow="480.00" occupancy="2.41" speed="42.94" harmonicMeanSpeed="40.50" length="7.75" nVehEntered="4"/>
    <interval begin="0.00" end="30.00" id="ooood2_0" nVehContrib="6" flow="720.00" occupancy="3.94" speed="38.78" harmonicMeanSpeed="37.41" length="7.00" nVehEntered="7"/>
    <interval begin="0.00" end="30.00" id="ooood2_1" nVehContrib="8" flow="960.00" occupancy="4.81" speed="40.86" harmonicMeanSpeed="38.88" length="7.38" nVehEntered="8"/>
    <interval begin="0.00" end="30.00" id="ooood2_2" nVehContrib="5" flow="600.00" occupancy="3.01" speed="34.35" harmonicMeanSpeed="33.82" length="6.20" nVehEntered="5"/>
    <interval begin="0.00" end="30.00" id="ooood3_0" nVehContrib="7" flow="840.00" occupancy="4.21" speed="37.99" harmonicMeanSpeed="36.75" length="6.86" nVehEntered="7"/>
    <interval begin="0.00" end="30.00" id="ooood3_1" nVehContrib="4" flow="480.00" occupancy="2.41" speed="41.55" harmonicMeanSpeed="41.06" length="7.50" nVehEntered="4"/>
    <interval begin="0.00" end="30.00" id="ooood3_2" nVehContrib="5" flow="600.00" occupancy="3.01" speed="37.67" harmonicMeanSpeed="36.74" length="6.80" nVehEntered="5"/>
    <interval begin="0.00" end="30.00" id="ooood4_0" nVehContrib="2" flow="240.00" occupancy="1.20" speed="33.24" harmonicMeanSpeed="33.24" length="6.00" nVehEntered="2"/>
    <interval begin="0.00" end="30.00" id="ooood4_1" nVehContrib="7" flow="840.00" occupancy="4.21" speed="37.99" harmonicMeanSpeed="36.75" length="6.86" nVehEntered="7"/>
    <interval begin="0.00" end="30.00" id="ooood4_2" nVehContrib="11" flow="1320.00" occupancy="6.95" speed="42.31" harmonicMeanSpeed="40.91" length="7.64" nVehEntered="12"/>
    <interval begin="30.00" end="60.00" id="d1_0" nVehContrib="7" flow="840.00" occupancy="12.34" speed="11.09" harmonicMeanSpeed="11.08" length="5.86" nVehEntered="7"/>
    <interval begin="30.00" end="60.00" id="d1_1" nVehContrib="2" flow="240.00" occupancy="4.17" speed="11.18" harmonicMeanSpeed="11.18" length="7.00" nVehEntered="2"/>
    <interval begin="30.00" end="60.00" id="d1_2" nVehContrib="5" flow="600.00" occupancy="64.52" speed="5.25" harmonicMeanSpeed="2.26" length="7.00" nVehEntered="5"/>
    <interval begin="30.00" end="60.00" id="d2_0" nVehContrib="5" flow="600.00" occupancy="87.82" speed="3.71" harmonicMeanSpeed="1.37" length="7.40" nVehEntered="5"/>
    <interval begin="30.00" end="60.00" id="d2_1" nVehContrib="2" flow="240.00" occupancy="4.17" speed="11.18" harmonicMeanSpeed="11.18" length="7.00" nVehEntered="2"/>
    <interval begin="30.00" end="60.00" id="d2_2" nVehContrib="5" flow="600.00" occupancy="27.48" speed="7.23" harmonicMeanSpeed="2.65" length="6.40" nVehEntered="4"/>
    <interval begin="30.00" end="60.00" id="d3_0" nVehContrib="6" flow="720.00" occupancy="12.08" speed="10.26" harmonicMeanSpeed="9.72" length="6.00" nVehEntered="6"/>
    <interval begin="30.00" end="60.00" id="d3_1" nVehContrib="3" flow="360.00" occupancy="5.37" speed="11.18" harmonicMeanSpeed="11.18" length="6.00" nVehEntered="3"/>
    <interval begin="30.00" end="60.00" id="d3_2" nVehContrib="4" flow="480.00" occupancy="95.34" speed="2.91" harmonicMeanSpeed="0.92" length="7.00" nVehEntered="4"/>
    <interval begin="30.00" end="60.00" id="d4_0" nVehContrib="7" flow="840.00" occupancy="42.35" speed="8.33" harmonicMeanSpeed="3.62" length="6.86" nVehEntered="7"/>
    <interval begin="30.00" end="60.00" id="d4_1" nVehContrib="4" flow="480.00" occupancy="10.16" speed="10.12" harmonicMeanSpeed="10.00" length="7.75" nVehEntered="4"/>
    <interval begin="30.00" end="60.00" id="d4_2" nVehContrib="6" flow="720.00" occupancy="65.83" speed="7.08" harmonicMeanSpeed="3.69" length="7.17" nVehEntered="7"/>
    <interval begin="30.00" end="60.00" id="od1_0" nVehContrib="7" flow="840.00" occupancy="12.26" speed="11.14" harmonicMeanSpeed="11.14" length="5.86" nVehEntered="7"/>
    <interval begin="30.00" end="60.00" id="od1_1" nVehContrib="1" flow="120.00" occupancy="1.79" speed="11.18" harmonicMeanSpeed="11.18" length="6.00" nVehEntered="1"/>
    <interval begin="30.00" end="60.00" id="od1_2" nVehContrib="5" flow="600.00" occupancy="16.55" speed="10.81" harmonicMeanSpeed="10.75" length="7.60" nVehEntered="6"/>
    <interval begin="30.00" end="60.00" id="od2_0" nVehContrib="6" flow="720.00" occupancy="65.54" speed="8.99" harmonicMeanSpeed="2.91" length="7.83" nVehEntered="7"/>
    <interval begin="30.00" end="60.00" id="od2_1" nVehContrib="2" flow="240.00" occupancy="4.17" speed="11.18" harmonicMeanSpeed="11.18" length="7.00" nVehEntered="2"/>
    <interval begin="30.00" end="60.00" id="od2_2" nVehContrib="4" flow="480.00" occupancy="6.57" speed="11.18" harmonicMeanSpeed="11.18" length="6.00" nVehEntered="3"/>
    <interval begin="30.00" end="60.00" id="od3_0" nVehContrib="7" flow="840.00" occupancy="12.52" speed="11.18" harmonicMeanSpeed="11.18" length="6.00" nVehEntered="7"/>
    <interval begin="30.00" end="60.00" id="od3_1" nVehContrib="2" flow="240.00" occupancy="3.88" speed="11.18" harmonicMeanSpeed="11.18" length="6.50" nVehEntered="2"/>
    <interval begin="30.00" end="60.00" id="od3_2" nVehContrib="4" flow="480.00" occupancy="12.91" speed="7.40" harmonicMeanSpeed="7.09" length="7.00" nVehEntered="4"/>
    <interval begin="30.00" end="60.00" id="od4_0" nVehContrib="6" flow="720.00" occupancy="11.93" speed="11.18" harmonicMeanSpeed="11.18" length="6.67" nVehEntered="6"/>
    <interval begin="30.00" end="60.00" id="od4_1" nVehContrib="4" flow="480.00" occupancy="9.24" speed="11.18" harmonicMeanSpeed="11.18" length="7.75" nVehEntered="4"/>
    <interval begin="30.00" end="60.00" id="od4_2" nVehContrib="9" flow="1080.00" occupancy="55.77" speed="7.31" harmonicMeanSpeed="3.98" length="7.44" nVehEntered="9"/>
    <interval begin="30.00" end="60.00" id="ood1_0" nVehContrib="6" flow="720.00" occupancy="9.84" speed="11.18" harmonicMeanSpeed="11.18" length="5.50" nVehEntered="6"/>
    <interval begin="30.00" end="60.00" id="ood1_1" nVehContrib="1" flow="120.00" occupancy="1.79" speed="11.18" harmonicMeanSpeed="11.18" length="6.00" nVehEntered="1"/>
    <interval begin="30.00" end="60.00" id="ood1_2" nVehContrib="6" flow="720.00" occupancy="15.39" speed="11.18" harmonicMeanSpeed="11.18" length="7.67" nVehEntered="7"/>
    <interval begin="30.00" end="60.00" id="ood2_0" nVehContrib="8" flow="960.00" occupancy="33.30" speed="9.94" harmonicMeanSpeed="8.44" length="7.75" nVehEntered="9"/>
    <interval begin="30.00" end="60.00" id="ood2_1" nVehContrib="2" flow="240.00" occupancy="4.17" speed="11.18" harmonicMeanSpeed="11.18" length="7.00" nVehEntered="2"/>
    <interval begin="30.00" end="60.00" id="ood2_2" nVehContrib="3" flow="360.00" occupancy="7.26" speed="11.18" harmonicMeanSpeed="11.18" length="6.33" nVehEntered="4"/>
    <interval begin="30.00" end="60.00" id="ood3_0" nVehContrib="7" flow="840.00" occupancy="12.52" speed="11.18" harmonicMeanSpeed="11.18" length="6.00" nVehEntered="7"/>
    <interval begin="30.00" end="60.00" id="ood3_1" nVehContrib="2" flow="240.00" occupancy="3.88" speed="11.18" harmonicMeanSpeed="11.18" length="6.50" nVehEntered="2"/>
    <interval begin="30.00" end="60.00" id="ood3_2" nVehContrib="5" flow="600.00" occupancy="43.40" speed="5.70" harmonicMeanSpeed="3.06" length="7.60" nVehEntered="6"/>
    <interval begin="30.00" end="60.00" id="ood4_0" nVehContrib="6" flow="720.00" occupancy="12.22" speed="11.18" harmonicMeanSpeed="11.18" length="6.83" nVehEntered="6"/>
    <interval begin="30.00" end="60.00" id="ood4_1" nVehContrib="4" flow="480.00" occupancy="9.24" speed="11.18" harmonicMeanSpeed="11.18" length="7.75" nVehEntered="4"/>
    <interval begin="30.00" end="60.00" id="ood4_2" nVehContrib="10" flow="1200.00" occupancy="30.36" speed="10.59" harmonicMeanSpeed="10.47" length="7.10" nVehEntered="11"/>
    <interval begin="30.00" end="60.00" id="oood1_0" nVehContrib="5" flow="600.00" occupancy="8.35" speed="11.18" harmonicMeanSpeed="11.18" length="5.60" nVehEntered="5"/>
    <interval begin="30.00" end="60.00" id="oood1_1" nVehContrib="1" flow="120.00" occupancy="1.79" speed="11.17" harmonicMeanSpeed="11.17" length="6.00" nVehEntered="1"/>
    <interval begin="30.00" end="60.00" id="oood1_2" nVehContrib="6" flow="720.00" occupancy="13.12" speed="11.18" harmonicMeanSpeed="11.18" length="7.33" nVehEntered="6"/>
    <interval begin="30.00" end="60.00" id="oood2_0" nVehContrib="9" flow="1080.00" occupancy="21.82" speed="11.01" harmonicMeanSpeed="11.01" length="8.00" nVehEntered="9"/>
    <interval begin="30.00" end="60.00" id="oood2_1" nVehContrib="2" flow="240.00" occupancy="4.17" speed="11.18" harmonicMeanSpeed="11.18" length="7.00" nVehEntered="2"/>
    <interval begin="30.00" end="60.00" id="oood2_2" nVehContrib="4" flow="480.00" occupancy="8.05" speed="11.18" harmonicMeanSpeed="11.18" length="6.75" nVehEntered="4"/>
    <interval begin="30.00" end="60.00" id="oood3_0" nVehContrib="6" flow="720.00" occupancy="10.75" speed="11.18" harmonicMeanSpeed="11.18" length="6.00" nVehEntered="7"/>
    <interval begin="30.00" end="60.00" id="oood3_1" nVehContrib="2" flow="240.00" occupancy="3.93" speed="11.01" harmonicMeanSpeed="11.01" length="6.50" nVehEntered="2"/>
    <interval begin="30.00" end="60.00" id="oood3_2" nVehContrib="6" flow="720.00" occupancy="20.15" speed="9.57" harmonicMeanSpeed="7.52" length="7.83" nVehEntered="6"/>
    <interval begin="30.00" end="60.00" id="oood4_0" nVehContrib="6" flow="720.00" occupancy="12.25" speed="11.16" harmonicMeanSpeed="11.16" length="6.83" nVehEntered="6"/>
    <interval begin="30.00" end="60.00" id="oood4_1" nVehContrib="4" flow="480.00" occupancy="9.24" speed="11.18" harmonicMeanSpeed="11.18" length="7.75" nVehEntered="4"/>
    <interval begin="30.00" end="60.00" id="oood4_2" nVehContrib="10" flow="1200.00" occupancy="20.58" speed="11.18" harmonicMeanSpeed="11.18" length="6.90" nVehEntered="10"/>
    <interval begin="30.00" end="60.00" id="ooood1_0" nVehContrib="4" flow="480.00" occupancy="2.41" speed="36.01" harmonicMeanSpeed="34.39" length="6.50" nVehEntered="4"/>
    <interval begin="30.00" end="60.00" id="ooood1_1" nVehContrib="5" flow="600.00" occupancy="3.01" speed="39.89" harmonicMeanSpeed="38.06" length="7.20" nVehEntered="5"/>
    <interval begin="30.00" end="60.00" id="ooood1_2" nVehContrib="5" flow="600.00" occupancy="3.01" speed="33.24" harmonicMeanSpeed="31.56" length="6.00" nVehEntered="5"/>
    <interval begin="30.00" end="60.00" id="ooood2_0" nVehContrib="5" flow="600.00" occupancy="2.68" speed="44.32" harmonicMeanSpeed="42.08" length="8.00" nVehEntered="4"/>
    <interval begin="30.00" end="60.00" id="ooood2_1" nVehContrib="5" flow="600.00" occupancy="3.01" speed="39.89" harmonicMeanSpeed="39.44" length="7.20" nVehEntered="5"/>
    <interval begin="30.00" end="60.00" id="ooood2_2" nVehContrib="5" flow="600.00" occupancy="3.01" speed="38.78" harmonicMeanSpeed="36.40" length="7.00" nVehEntered="5"/>
    <interval begin="30.00" end="60.00" id="ooood3_0" nVehContrib="7" flow="840.00" occupancy="4.21" speed="32.45" harmonicMeanSpeed="31.66" length="5.86" nVehEntered="7"/>
    <interval begin="30.00" end="60.00" id="ooood3_1" nVehContrib="4" flow="480.00" occupancy="2.41" speed="44.32" harmonicMeanSpeed="43.63" length="8.00" nVehEntered="4"/>
    <interval begin="30.00" end="60.00" id="ooood3_2" nVehContrib="6" flow="720.00" occupancy="3.61" speed="36.93" harmonicMeanSpeed="35.74" length="6.67" nVehEntered="6"/>
    <interval begin="30.00" end="60.00" id="ooood4_0" nVehContrib="4" flow="480.00" occupancy="2.41" speed="33.24" harmonicMeanSpeed="32.77" length="6.00" nVehEntered="4"/>
    <interval begin="30.00" end="60.00" id="ooood4_1" nVehContrib="9" flow="1080.00" occupancy="5.42" speed="37.55" harmonicMeanSpeed="36.70" length="6.78" nVehEntered="9"/>
    <interval begin="30.00" end="60.00" id="ooood4_2" nVehContrib="6" flow="720.00" occupancy="3.28" speed="43.40" harmonicMeanSpeed="42.52" length="7.83" nVehEntered="5"/>
    <interval begin="60.00" end="90.00" id="d1_0" nVehContrib="5" flow="600.00" occupancy="10.44" speed="11.18" harmonicMeanSpeed="11.18" length="7.00" nVehEntered="5"/>
    <interval begin="60.00" end="90.00" id="d1_1" nVehContrib="2" flow="240.00" occupancy="4.17" speed="11.18" harmonicMeanSpeed="11.18" length="7.00" nVehEntered="2"/>
    <interval begin="60.00" end="90.00" id="d1_2" nVehContrib="3" flow="360.00" occupancy="95.58" speed="0.92" harmonicMeanSpeed="0.78" length="8.33" nVehEntered="3"/>
    <interval begin="60.00" end="90.00" id="d2_0" nVehContrib="2" flow="240.00" occupancy="50.13" speed="1.07" harmonicMeanSpeed="0.92" length="8.50" nVehEntered="1"/>
    <interval begin="60.00" end="90.00" id="d2_1" nVehContrib="2" flow="240.00" occupancy="3.58" speed="11.18" harmonicMeanSpeed="11.18" length="6.00" nVehEntered="2"/>
    <interval begin="60.00" end="90.00" id="d2_2" nVehContrib="5" flow="600.00" occupancy="30.27" speed="8.93" harmonicMeanSpeed="5.23" length="6.60" nVehEntered="6"/>
    <interval begin="60.00" end="90.00" id="d3_0" nVehContrib="8" flow="960.00" occupancy="17.81" speed="9.64" harmonicMeanSpeed="9.40" length="6.25" nVehEntered="8"/>
    <interval begin="60.00" end="90.00" id="d3_1" nVehContrib="2" flow="240.00" occupancy="4.77" speed="11.18" harmonicMeanSpeed="11.18" length="8.00" nVehEntered="2"/>
    <interval begin="60.00" end="90.00" id="d3_2" nVehContrib="5" flow="600.00" occupancy="94.18" speed="4.93" harmonicMeanSpeed="1.28" length="7.60" nVehEntered="5"/>
    <interval begin="60.00" end="90.00" id="d4_0" nVehContrib="6" flow="720.00" occupancy="14.89" speed="10.83" harmonicMeanSpeed="10.77" length="7.50" nVehEntered="7"/>
    <interval begin="60.00" end="90.00" id="d4_1" nVehContrib="0" flow="0.00" occupancy="0.00" speed="-1.00" harmonicMeanSpeed="-1.00" length="-1.00" nVehEntered="0"/>
    <interval begin="60.00" end="90.00" id="d4_2" nVehContrib="2" flow="240.00" occupancy="98.16" speed="1.75" harmonicMeanSpeed="1.35" length="7.50" nVehEntered="2"/>
    <interval begin="60.00" end="90.00" id="od1_0" nVehContrib="6" flow="720.00" occupancy="12.82" speed="11.18" harmonicMeanSpeed="11.18" length="7.17" nVehEntered="6"/>
    <interval begin="60.00" end="90.00" id="od1_1" nVehContrib="2" flow="240.00" occupancy="4.17" speed="11.18" harmonicMeanSpeed="11.18" length="7.00" nVehEntered="2"/>
    <interval begin="60.00" end="90.00" id="od1_2" nVehContrib="3" flow="360.00" occupancy="96.47" speed="0.86" harmonicMeanSpeed="0.79" length="7.67" nVehEntered="3"/>
    <interval begin="60.00" end="90.00" id="od2_0" nVehContrib="2" flow="240.00" occupancy="97.04" speed="0.87" harmonicMeanSpeed="0.73" length="6.50" nVehEntered="2"/>
    <interval begin="60.00" end="90.00" id="od2_1" nVehContrib="1" flow="120.00" occupancy="2.09" speed="11.18" harmonicMeanSpeed="11.18" length="7.00" nVehEntered="1"/>
    <interval begin="60.00" end="90.00" id="od2_2" nVehContrib="8" flow="960.00" occupancy="15.56" speed="11.14" harmonicMeanSpeed="11.14" length="6.50" nVehEntered="8"/>
    <interval begin="60.00" end="90.00" id="od3_0" nVehContrib="8" flow="960.00" occupancy="15.80" speed="11.18" harmonicMeanSpeed="11.18" length="6.63" nVehEntered="8"/>
    <interval begin="60.00" end="90.00" id="od3_1" nVehContrib="2" flow="240.00" occupancy="4.77" speed="11.18" harmonicMeanSpeed="11.18" length="8.00" nVehEntered="2"/>
    <interval begin="60.00" end="90.00" id="od3_2" nVehContrib="4" flow="480.00" occupancy="73.34" speed="5.64" harmonicMeanSpeed="1.43" length="8.00" nVehEntered="5"/>
    <interval begin="60.00" end="90.00" id="od4_0" nVehContrib="7" flow="840.00" occupancy="17.58" speed="11.18" harmonicMeanSpeed="11.18" length="7.71" nVehEntered="8"/>
    <interval begin="60.00" end="90.00" id="od4_1" nVehContrib="0" flow="0.00" occupancy="0.00" speed="-1.00" harmonicMeanSpeed="-1.00" length="-1.00" nVehEntered="0"/>
    <interval begin="60.00" end="90.00" id="od4_2" nVehContrib="2" flow="240.00" occupancy="5.63" speed="7.80" harmonicMeanSpeed="7.75" length="6.50" nVehEntered="2"/>
    <interval begin="60.00" end="90.00" id="ood1_0" nVehContrib="6" flow="720.00" occupancy="14.19" speed="11.18" harmonicMeanSpeed="11.18" length="7.17" nVehEntered="7"/>
    <interval begin="60.00" end="90.00" id="ood1_1" nVehContrib="2" flow="240.00" occupancy="4.17" speed="11.18" harmonicMeanSpeed="11.18" length="7.00" nVehEntered="2"/>
    <interval begin="60.00" end="90.00" id="ood1_2" nVehContrib="5" flow="600.00" occupancy="48.52" speed="6.44" harmonicMeanSpeed="1.98" length="6.40" nVehEntered="5"/>
    <interval begin="60.00" end="90.00" id="ood2_0" nVehContrib="1" flow="120.00" occupancy="62.82" speed="1.52" harmonicMeanSpeed="1.52" length="9.00" nVehEntered="1"/>
    <interval begin="60.00" end="90.00" id="ood2_1" nVehContrib="1" flow="120.00" occupancy="2.09" speed="11.18" harmonicMeanSpeed="11.18" length="7.00" nVehEntered="1"/>
    <interval begin="60.00" end="90.00" id="ood2_2" nVehContrib="8" flow="960.00" occupancy="15.95" speed="11.18" harmonicMeanSpeed="11.18" length="6.50" nVehEntered="8"/>
    <interval begin="60.00" end="90.00" id="ood3_0" nVehContrib="9" flow="1080.00" occupancy="17.59" speed="11.18" harmonicMeanSpeed="11.18" length="6.56" nVehEntered="9"/>
    <interval begin="60.00" end="90.00" id="ood3_1" nVehContrib="2" flow="240.00" occupancy="4.77" speed="11.18" harmonicMeanSpeed="11.18" length="8.00" nVehEntered="2"/>
    <interval begin="60.00" end="90.00" id="ood3_2" nVehContrib="5" flow="600.00" occupancy="65.37" speed="6.24" harmonicMeanSpeed="1.99" length="7.00" nVehEntered="5"/>
    <interval begin="60.00" end="90.00" id="ood4_0" nVehContrib="7" flow="840.00" occupancy="18.66" speed="11.18" harmonicMeanSpeed="11.18" length="7.86" nVehEntered="8"/>
    <interval begin="60.00" end="90.00" id="ood4_1" nVehContrib="0" flow="0.00" occupancy="0.00" speed="-1.00" harmonicMeanSpeed="-1.00" length="-1.00" nVehEntered="0"/>
    <interval begin="60.00" end="90.00" id="ood4_2" nVehContrib="2" flow="240.00" occupancy="77.68" speed="6.26" harmonicMeanSpeed="2.39" length="6.00" nVehEntered="2"/>
    <interval begin="60.00" end="90.00" id="oood1_0" nVehContrib="7" flow="840.00" occupancy="14.32" speed="11.17" harmonicMeanSpeed="11.17" length="6.86" nVehEntered="7"/>
    <interval begin="60.00" end="90.00" id="oood1_1" nVehContrib="3" flow="360.00" occupancy="6.26" speed="11.18" harmonicMeanSpeed="11.18" length="7.00" nVehEntered="3"/>
    <interval begin="60.00" end="90.00" id="oood1_2" nVehContrib="5" flow="600.00" occupancy="10.15" speed="10.08" harmonicMeanSpeed="10.01" length="6.20" nVehEntered="5"/>
    <interval begin="60.00" end="90.00" id="oood2_0" nVehContrib="2" flow="240.00" occupancy="81.82" speed="2.70" harmonicMeanSpeed="0.89" length="6.50" nVehEntered="3"/>
    <interval begin="60.00" end="90.00" id="oood2_1" nVehContrib="1" flow="120.00" occupancy="2.09" speed="11.18" harmonicMeanSpeed="11.18" length="7.00" nVehEntered="1"/>
    <interval begin="60.00" end="90.00" id="oood2_2" nVehContrib="8" flow="960.00" occupancy="15.96" speed="11.08" harmonicMeanSpeed="11.08" length="6.63" nVehEntered="8"/>
    <interval begin="60.00" end="90.00" id="oood3_0" nVehContrib="9" flow="1080.00" occupancy="17.57" speed="11.18" harmonicMeanSpeed="11.18" length="6.56" nVehEntered="8"/>
    <interval begin="60.00" end="90.00" id="oood3_1" nVehContrib="2" flow="240.00" occupancy="4.77" speed="11.18" harmonicMeanSpeed="11.18" length="8.00" nVehEntered="2"/>
    <interval begin="60.00" end="90.00" id="oood3_2" nVehContrib="5" flow="600.00" occupancy="43.58" speed="6.32" harmonicMeanSpeed="2.53" length="6.60" nVehEntered="5"/>
    <interval begin="60.00" end="90.00" id="oood4_0" nVehContrib="7" flow="840.00" occupancy="16.71" speed="11.17" harmonicMeanSpeed="11.17" length="8.00" nVehEntered="7"/>
    <interval begin="60.00" end="90.00" id="oood4_1" nVehContrib="1" flow="120.00" occupancy="2.09" speed="11.18" harmonicMeanSpeed="11.18" length="7.00" nVehEntered="1"/>
    <interval begin="60.00" end="90.00" id="oood4_2" nVehContrib="3" flow="360.00" occupancy="6.96" speed="11.04" harmonicMeanSpeed="11.04" length="7.67" nVehEntered="3"/>