<?xml version="1.0" encoding="UTF-8"?>

<!-- generated on 2022-05-10 12:47:31 by Eclipse SUMO GUI Version 1.9.2
<configuration xmlns:xsi="http://www.w3.org/2001/XMLSchema-instance" xsi:noNamespaceSchemaLocation="http://sumo.dlr.de/xsd/sumoConfiguration.xsd">

    <input>
        <net-file value="data/lane3.net.xml"/>
        <route-files value="data/icacc+.rou.xml"/>
        <additional-files value="data/icacc+.det.xml"/>
    </input>

    <output>
        <tripinfo-output value="tripinfo.xml"/>
    </output>

    <time>
        <begin value="0"/>
        <step-length value="0.05"/>
    </time>

    <processing>
        <collision.mingap-factor value="0"/>
        <time-to-teleport value="-1"/>
        <lanechange.duration value="0.5"/>
    </processing>

    <report>
        <verbose value="true"/>
        <no-step-log value="true"/>
    </report>

    <traci_server>
        <remote-port value="55624"/>
    </traci_server>

    <gui_only>
        <start value="true"/>
        <tracker-interval value="0.05"/>
    </gui_only>

</configuration>
-->

<detector xmlns:xsi="http://www.w3.org/2001/XMLSchema-instance" xsi:noNamespaceSchemaLocation="http://sumo.dlr.de/xsd/det_e1_file.xsd">
    <interval begin="0.00" end="30.00" id="d1_0" nVehContrib="1" flow="120.00" occupancy="1.49" speed="11.18" harmonicMeanSpeed="11.18" length="5.00" nVehEntered="1"/>
    <interval begin="0.00" end="30.00" id="d1_1" nVehContrib="3" flow="360.00" occupancy="5.66" speed="11.18" harmonicMeanSpeed="11.18" length="6.33" nVehEntered="3"/>
    <interval begin="0.00" end="30.00" id="d1_2" nVehContrib="4" flow="480.00" occupancy="9.54" speed="11.18" harmonicMeanSpeed="11.18" length="8.00" nVehEntered="4"/>
    <interval begin="0.00" end="30.00" id="d2_0" nVehContrib="5" flow="600.00" occupancy="10.14" speed="11.18" harmonicMeanSpeed="11.18" length="6.80" nVehEntered="5"/>
    <interval begin="0.00" end="30.00" id="d2_1" nVehContrib="1" flow="120.00" occupancy="1.49" speed="11.18" harmonicMeanSpeed="11.18" length="5.00" nVehEntered="1"/>
    <interval begin="0.00" end="30.00" id="d2_2" nVehContrib="3" flow="360.00" occupancy="7.12" speed="11.18" harmonicMeanSpeed="11.18" length="7.00" nVehEntered="4"/>
    <interval begin="0.00" end="30.00" id="d3_0" nVehContrib="3" flow="360.00" occupancy="5.66" speed="11.18" harmonicMeanSpeed="11.18" length="6.33" nVehEntered="3"/>
    <interval begin="0.00" end="30.00" id="d3_1" nVehContrib="1" flow="120.00" occupancy="1.49" speed="11.18" harmonicMeanSpeed="11.18" length="5.00" nVehEntered="1"/>
    <interval begin="0.00" end="30.00" id="d3_2" nVehContrib="3" flow="360.00" occupancy="5.96" speed="11.18" harmonicMeanSpeed="11.18" length="6.67" nVehEntered="3"/>
    <interval begin="0.00" end="30.00" id="d4_0" nVehContrib="7" flow="840.00" occupancy="14.31" speed="11.18" harmonicMeanSpeed="11.18" length="6.86" nVehEntered="7"/>
    <interval begin="0.00" end="30.00" id="d4_1" nVehContrib="0" flow="0.00" occupancy="0.00" speed="-1.00" harmonicMeanSpeed="-1.00" length="-1.00" nVehEntered="0"/>
    <interval begin="0.00" end="30.00" id="d4_2" nVehContrib="3" flow="360.00" occupancy="7.45" speed="11.18" harmonicMeanSpeed="11.18" length="8.33" nVehEntered="3"/>
    <interval begin="0.00" end="30.00" id="od1_0" nVehContrib="1" flow="120.00" occupancy="1.49" speed="11.18" harmonicMeanSpeed="11.18" length="5.00" nVehEntered="1"/>
    <interval begin="0.00" end="30.00" id="od1_1" nVehContrib="3" flow="360.00" occupancy="5.66" speed="11.18" harmonicMeanSpeed="11.18" length="6.33" nVehEntered="3"/>
    <interval begin="0.00" end="30.00" id="od1_2" nVehContrib="4" flow="480.00" occupancy="9.54" speed="11.18" harmonicMeanSpeed="11.18" length="8.00" nVehEntered="4"/>
    <interval begin="0.00" end="30.00" id="od2_0" nVehContrib="5" flow="600.00" occupancy="11.78" speed="11.18" harmonicMeanSpeed="11.18" length="6.80" nVehEntered="6"/>
    <interval begin="0.00" end="30.00" id="od2_1" nVehContrib="1" flow="120.00" occupancy="1.49" speed="11.18" harmonicMeanSpeed="11.18" length="5.00" nVehEntered="1"/>
    <interval begin="0.00" end="30.00" id="od2_2" nVehContrib="4" flow="480.00" occupancy="8.65" speed="11.18" harmonicMeanSpeed="11.18" length="7.25" nVehEntered="4"/>
    <interval begin="0.00" end="30.00" id="od3_0" nVehContrib="4" flow="480.00" occupancy="8.30" speed="11.18" harmonicMeanSpeed="11.18" length="6.00" nVehEntered="5"/>
    <interval begin="0.00" end="30.00" id="od3_1" nVehContrib="1" flow="120.00" occupancy="1.49" speed="11.18" harmonicMeanSpeed="11.18" length="5.00" nVehEntered="1"/>
    <interval begin="0.00" end="30.00" id="od3_2" nVehContrib="4" flow="480.00" occupancy="8.05" speed="11.18" harmonicMeanSpeed="11.18" length="6.75" nVehEntered="4"/>
    <interval begin="0.00" end="30.00" id="od4_0" nVehContrib="7" flow="840.00" occupancy="14.31" speed="11.18" harmonicMeanSpeed="11.18" length="6.86" nVehEntered="7"/>
    <interval begin="0.00" end="30.00" id="od4_1" nVehContrib="1" flow="120.00" occupancy="1.49" speed="11.18" harmonicMeanSpeed="11.18" length="5.00" nVehEntered="1"/>
    <interval begin="0.00" end="30.00" id="od4_2" nVehContrib="3" flow="360.00" occupancy="7.45" speed="11.18" harmonicMeanSpeed="11.18" length="8.33" nVehEntered="3"/>
    <interval begin="0.00" end="30.00" id="ood1_0" nVehContrib="1" flow="120.00" occupancy="1.49" speed="11.18" harmonicMeanSpeed="11.18" length="5.00" nVehEntered="1"/>
    <interval begin="0.00" end="30.00" id="ood1_1" nVehContrib="3" flow="360.00" occupancy="5.66" speed="11.18" harmonicMeanSpeed="11.18" length="6.33" nVehEntered="3"/>
    <interval begin="0.00" end="30.00" id="ood1_2" nVehContrib="4" flow="480.00" occupancy="9.54" speed="11.18" harmonicMeanSpeed="11.18" length="8.00" nVehEntered="4"/>
    <interval begin="0.00" end="30.00" id="ood2_0" nVehContrib="7" flow="840.00" occupancy="14.01" speed="11.18" harmonicMeanSpeed="11.18" length="6.71" nVehEntered="7"/>
    <interval begin="0.00" end="30.00" id="ood2_1" nVehContrib="1" flow="120.00" occupancy="1.49" speed="11.18" harmonicMeanSpeed="11.18" length="5.00" nVehEntered="1"/>
    <interval begin="0.00" end="30.00" id="ood2_2" nVehContrib="5" flow="600.00" occupancy="10.44" speed="11.18" harmonicMeanSpeed="11.18" length="7.00" nVehEntered="5"/>
    <interval begin="0.00" end="30.00" id="ood3_0" nVehContrib="5" flow="600.00" occupancy="9.54" speed="11.18" harmonicMeanSpeed="11.18" length="6.40" nVehEntered="5"/>
    <interval begin="0.00" end="30.00" id="ood3_1" nVehContrib="1" flow="120.00" occupancy="1.49" speed="11.18" harmonicMeanSpeed="11.18" length="5.00" nVehEntered="1"/>
    <interval begin="0.00" end="30.00" id="ood3_2" nVehContrib="4" flow="480.00" occupancy="8.05" speed="11.18" harmonicMeanSpeed="11.18" length="6.75" nVehEntered="4"/>
    <interval begin="0.00" end="30.00" id="ood4_0" nVehContrib="7" flow="840.00" occupancy="14.31" speed="11.18" harmonicMeanSpeed="11.18" length="6.86" nVehEntered="7"/>
    <interval begin="0.00" end="30.00" id="ood4_1" nVehContrib="1" flow="120.00" occupancy="1.49" speed="11.18" harmonicMeanSpeed="11.18" length="5.00" nVehEntered="1"/>
    <interval begin="0.00" end="30.00" id="ood4_2" nVehContrib="4" flow="480.00" occupancy="10.54" speed="11.18" harmonicMeanSpeed="11.18" length="7.75" nVehEntered="5"/>
    <interval begin="0.00" end="30.00" id="oood1_0" nVehContrib="2" flow="240.00" occupancy="5.26" speed="11.18" harmonicMeanSpeed="11.18" length="7.00" nVehEntered="3"/>
    <interval begin="0.00" end="30.00" id="oood1_1" nVehContrib="3" flow="360.00" occupancy="5.76" speed="11.01" harmonicMeanSpeed="11.01" length="6.33" nVehEntered="3"/>
    <interval begin="0.00" end="30.00" id="oood1_2" nVehContrib="4" flow="480.00" occupancy="9.54" speed="11.18" harmonicMeanSpeed="11.18" length="8.00" nVehEntered="4"/>
    <interval begin="0.00" end="30.00" id="oood2_0" nVehContrib="7" flow="840.00" occupancy="14.01" speed="11.18" harmonicMeanSpeed="11.18" length="6.71" nVehEntered="7"/>
    <interval begin="0.00" end="30.00" id="oood2_1" nVehContrib="1" flow="120.00" occupancy="1.49" speed="11.18" harmonicMeanSpeed="11.18" length="5.00" nVehEntered="1"/>
    <interval begin="0.00" end="30.00" id="oood2_2" nVehContrib="6" flow="720.00" occupancy="11.93" speed="11.18" harmonicMeanSpeed="11.18" length="6.67" nVehEntered="6"/>
    <interval begin="0.00" end="30.00" id="oood3_0" nVehContrib="5" flow="600.00" occupancy="9.54" speed="11.18" harmonicMeanSpeed="11.18" length="6.40" nVehEntered="5"/>
    <interval begin="0.00" end="30.00" id="oood3_1" nVehContrib="1" flow="120.00" occupancy="1.49" speed="11.18" harmonicMeanSpeed="11.18" length="5.00" nVehEntered="1"/>
    <interval begin="0.00" end="30.00" id="oood3_2" nVehContrib="5" flow="600.00" occupancy="10.14" speed="11.18" harmonicMeanSpeed="11.18" length="6.80" nVehEntered="5"/>
    <interval begin="0.00" end="30.00" id="oood4_0" nVehContrib="7" flow="840.00" occupancy="14.31" speed="11.18" harmonicMeanSpeed="11.18" length="6.86" nVehEntered="7"/>
    <interval begin="0.00" end="30.00" id="oood4_1" nVehContrib="1" flow="120.00" occupancy="1.49" speed="11.18" harmonicMeanSpeed="11.18" length="5.00" nVehEntered="1"/>
    <interval begin="0.00" end="30.00" id="oood4_2" nVehContrib="5" flow="600.00" occupancy="10.73" speed="11.18" harmonicMeanSpeed="11.18" length="7.20" nVehEntered="5"/>
    <interval begin="0.00" end="30.00" id="ooood1_0" nVehContrib="6" flow="720.00" occupancy="2.61" speed="59.98" harmonicMeanSpeed="59.23" length="7.83" nVehEntered="6"/>
    <interval begin="0.00" end="30.00" id="ooood1_1" nVehContrib="1" flow="120.00" occupancy="0.44" speed="68.97" harmonicMeanSpeed="68.97" length="9.00" nVehEntered="1"/>
    <interval begin="0.00" end="30.00" id="ooood1_2" nVehContrib="5" flow="600.00" occupancy="2.19" speed="44.12" harmonicMeanSpeed="43.04" length="5.80" nVehEntered="5"/>
    <interval begin="0.00" end="30.00" id="ooood2_0" nVehContrib="5" flow="600.00" occupancy="2.18" speed="55.15" harmonicMeanSpeed="53.35" length="7.20" nVehEntered="5"/>
    <interval begin="0.00" end="30.00" id="ooood2_1" nVehContrib="3" flow="360.00" occupancy="1.41" speed="40.81" harmonicMeanSpeed="39.12" length="5.67" nVehEntered="3"/>
    <interval begin="0.00" end="30.00" id="ooood2_2" nVehContrib="10" flow="1200.00" occupancy="4.36" speed="53.55" harmonicMeanSpeed="50.93" length="7.00" nVehEntered="10"/>
    <interval begin="0.00" end="30.00" id="ooood3_0" nVehContrib="7" flow="840.00" occupancy="3.05" speed="47.07" harmonicMeanSpeed="46.17" length="6.14" nVehEntered="7"/>
    <interval begin="0.00" end="30.00" id="ooood3_1" nVehContrib="4" flow="480.00" occupancy="1.74" speed="51.72" harmonicMeanSpeed="48.19" length="6.75" nVehEntered="4"/>
    <interval begin="0.00" end="30.00" id="ooood3_2" nVehContrib="2" flow="240.00" occupancy="0.87" speed="45.98" harmonicMeanSpeed="45.98" length="6.00" nVehEntered="2"/>
    <interval begin="0.00" end="30.00" id="ooood4_0" nVehContrib="6" flow="720.00" occupancy="2.61" speed="45.98" harmonicMeanSpeed="44.02" length="6.00" nVehEntered="6"/>
    <interval begin="0.00" end="30.00" id="ooood4_1" nVehContrib="4" flow="480.00" occupancy="1.74" speed="65.13" harmonicMeanSpeed="64.91" length="8.50" nVehEntered="4"/>
    <interval begin="0.00" end="30.00" id="ooood4_2" nVehContrib="6" flow="720.00" occupancy="2.61" speed="57.47" harmonicMeanSpeed="56.24" length="7.50" nVehEntered="6"/>
    <interval begin="30.00" end="60.00" id="d1_0" nVehContrib="4" flow="480.00" occupancy="9.24" speed="11.18" harmonicMeanSpeed="11.18" length="7.75" nVehEntered="4"/>
    <interval begin="30.00" end="60.00" id="d1_1" nVehContrib="2" flow="240.00" occupancy="3.88" speed="11.18" harmonicMeanSpeed="11.18" length="6.50" nVehEntered="2"/>
    <interval begin="30.00" end="60.00" id="d1_2" nVehContrib="7" flow="840.00" occupancy="14.18" speed="11.09" harmonicMeanSpeed="11.09" length="6.29" nVehEntered="8"/>
    <interval begin="30.00" end="60.00" id="d2_0" nVehContrib="7" flow="840.00" occupancy="13.71" speed="11.18" harmonicMeanSpeed="11.18" length="6.57" nVehEntered="7"/>
    <interval begin="30.00" end="60.00" id="d2_1" nVehContrib="1" flow="120.00" occupancy="2.68" speed="11.18" harmonicMeanSpeed="11.18" length="9.00" nVehEntered="1"/>
    <interval begin="30.00" end="60.00" id="d2_2" nVehContrib="10" flow="1200.00" occupancy="19.38" speed="11.18" harmonicMeanSpeed="11.18" length="6.50" nVehEntered="10"/>
    <interval begin="30.00" end="60.00" id="d3_0" nVehContrib="4" flow="480.00" occupancy="9.52" speed="11.18" harmonicMeanSpeed="11.18" length="6.25" nVehEntered="5"/>
    <interval begin="30.00" end="60.00" id="d3_1" nVehContrib="1" flow="120.00" occupancy="2.09" speed="11.18" harmonicMeanSpeed="11.18" length="7.00" nVehEntered="1"/>
    <interval begin="30.00" end="60.00" id="d3_2" nVehContrib="7" flow="840.00" occupancy="12.83" speed="11.17" harmonicMeanSpeed="11.17" length="6.14" nVehEntered="7"/>
    <interval begin="30.00" end="60.00" id="d4_0" nVehContrib="4" flow="480.00" occupancy="9.54" speed="11.18" harmonicMeanSpeed="11.18" length="8.00" nVehEntered="4"/>
    <interval begin="30.00" end="60.00" id="d4_1" nVehContrib="3" flow="360.00" occupancy="5.96" speed="11.18" harmonicMeanSpeed="11.18" length="6.67" nVehEntered="3"/>
    <interval begin="30.00" end="60.00" id="d4_2" nVehContrib="10" flow="1200.00" occupancy="20.64" speed="10.93" harmonicMeanSpeed="10.89" length="6.50" nVehEntered="11"/>
    <interval begin="30.00" end="60.00" id="od1_0" nVehContrib="5" flow="600.00" occupancy="10.73" speed="11.18" harmonicMeanSpeed="11.18" length="7.20" nVehEntered="5"/>
    <interval begin="30.00" end="60.00" id="od1_1" nVehContrib="2" flow="240.00" occupancy="3.88" speed="11.18" harmonicMeanSpeed="11.18" length="6.50" nVehEntered="2"/>
    <interval begin="30.00" end="60.00" id="od1_2" nVehContrib="8" flow="960.00" occupancy="15.21" speed="11.18" harmonicMeanSpeed="11.18" length="6.38" nVehEntered="8"/>
    <interval begin="30.00" end="60.00" id="od2_0" nVehContrib="8" flow="960.00" occupancy="14.45" speed="11.18" harmonicMeanSpeed="11.18" length="6.75" nVehEntered="7"/>
    <interval begin="30.00" end="60.00" id="od2_1" nVehContrib="1" flow="120.00" occupancy="2.68" speed="11.18" harmonicMeanSpeed="11.18" length="9.00" nVehEntered="1"/>
    <interval begin="30.00" end="60.00" id="od2_2" nVehContrib="10" flow="1200.00" occupancy="18.78" speed="11.18" harmonicMeanSpeed="11.18" length="6.30" nVehEntered="10"/>
    <interval begin="30.00" end="60.00" id="od3_0" nVehContrib="4" flow="480.00" occupancy="7.50" speed="11.18" harmonicMeanSpeed="11.18" length="7.25" nVehEntered="3"/>
    <interval begin="30.00" end="60.00" id="od3_1" nVehContrib="1" flow="120.00" occupancy="2.09" speed="11.18" harmonicMeanSpeed="11.18" length="7.00" nVehEntered="1"/>
    <interval begin="30.00" end="60.00" id="od3_2" nVehContrib="6" flow="720.00" occupancy="10.73" speed="11.18" harmonicMeanSpeed="11.18" length="6.00" nVehEntered="6"/>
    <interval begin="30.00" end="60.00" id="od4_0" nVehContrib="4" flow="480.00" occupancy="9.54" speed="11.18" harmonicMeanSpeed="11.18" length="8.00" nVehEntered="4"/>
    <interval begin="30.00" end="60.00" id="od4_1" nVehContrib="2" flow="240.00" occupancy="4.47" speed="11.18" harmonicMeanSpeed="11.18" length="7.50" nVehEntered="2"/>
    <interval begin="30.00" end="60.00" id="od4_2" nVehContrib="11" flow="1320.00" occupancy="21.77" speed="11.18" harmonicMeanSpeed="11.18" length="6.64" nVehEntered="11"/>
    <interval begin="30.00" end="60.00" id="ood1_0" nVehContrib="5" flow="600.00" occupancy="10.73" speed="11.18" harmonicMeanSpeed="11.18" length="7.20" nVehEntered="5"/>
    <interval begin="30.00" end="60.00" id="ood1_1" nVehContrib="2" flow="240.00" occupancy="3.88" speed="11.18" harmonicMeanSpeed="11.18" length="6.50" nVehEntered="2"/>
    <interval begin="30.00" end="60.00" id="ood1_2" nVehContrib="9" flow="1080.00" occupancy="17.59" speed="11.18" harmonicMeanSpeed="11.18" length="6.56" nVehEntered="9"/>
    <interval begin="30.00" end="60.00" id="ood2_0" nVehContrib="7" flow="840.00" occupancy="15.71" speed="11.18" harmonicMeanSpeed="11.18" length="6.86" nVehEntered="8"/>
    <interval begin="30.00" end="60.00" id="ood2_1" nVehContrib="1" flow="120.00" occupancy="2.68" speed="11.18" harmonicMeanSpeed="11.18" length="9.00" nVehEntered="1"/>
    <interval begin="30.00" end="60.00" id="ood2_2" nVehContrib="9" flow="1080.00" occupancy="16.99" speed="11.18" harmonicMeanSpeed="11.18" length="6.33" nVehEntered="9"/>
    <interval begin="30.00" end="60.00" id="ood3_0" nVehContrib="3" flow="360.00" occupancy="6.26" speed="11.18" harmonicMeanSpeed="11.18" length="7.00" nVehEntered="3"/>
    <interval begin="30.00" end="60.00" id="ood3_1" nVehContrib="1" flow="120.00" occupancy="2.09" speed="11.18" harmonicMeanSpeed="11.18" length="7.00" nVehEntered="1"/>
    <interval begin="30.00" end="60.00" id="ood3_2" nVehContrib="6" flow="720.00" occupancy="10.73" speed="11.18" harmonicMeanSpeed="11.18" length="6.00" nVehEntered="6"/>
    <interval begin="30.00" end="60.00" id="ood4_0" nVehContrib="5" flow="600.00" occupancy="12.22" speed="11.18" harmonicMeanSpeed="11.18" length="8.20" nVehEntered="5"/>
    <interval begin="30.00" end="60.00" id="ood4_1" nVehContrib="2" flow="240.00" occupancy="5.81" speed="11.18" harmonicMeanSpeed="11.18" length="7.50" nVehEntered="3"/>
    <interval begin="30.00" end="60.00" id="ood4_2" nVehContrib="11" flow="1320.00" occupancy="21.07" speed="11.18" harmonicMeanSpeed="11.18" length="6.82" nVehEntered="10"/>
    <interval begin="30.00" end="60.00" id="oood1_0" nVehContrib="4" flow="480.00" occupancy="6.97" speed="11.18" harmonicMeanSpeed="11.18" length="6.75" nVehEntered="3"/>
    <interval begin="30.00" end="60.00" id="oood1_1" nVehContrib="3" flow="360.00" occupancy="6.26" speed="11.18" harmonicMeanSpeed="11.18" length="7.00" nVehEntered="3"/>
    <interval begin="30.00" end="60.00" id="oood1_2" nVehContrib="9" flow="1080.00" occupancy="17.60" speed="11.18" harmonicMeanSpeed="11.18" length="6.56" nVehEntered="9"/>
    <interval begin="30.00" end="60.00" id="oood2_0" nVehContrib="9" flow="1080.00" occupancy="19.68" speed="11.18" harmonicMeanSpeed="11.18" length="7.33" nVehEntered="9"/>
    <interval begin="30.00" end="60.00" id="oood2_1" nVehContrib="1" flow="120.00" occupancy="2.68" speed="11.18" harmonicMeanSpeed="11.18" length="9.00" nVehEntered="1"/>
    <interval begin="30.00" end="60.00" id="oood2_2" nVehContrib="9" flow="1080.00" occupancy="17.31" speed="11.17" harmonicMeanSpeed="11.17" length="6.44" nVehEntered="9"/>
    <interval begin="30.00" end="60.00" id="oood3_0" nVehContrib="3" flow="360.00" occupancy="6.46" speed="11.16" harmonicMeanSpeed="11.16" length="7.00" nVehEntered="4"/>
    <interval begin="30.00" end="60.00" id="oood3_1" nVehContrib="1" flow="120.00" occupancy="2.09" speed="11.18" harmonicMeanSpeed="11.18" length="7.00" nVehEntered="1"/>
    <interval begin="30.00" end="60.00" id="oood3_2" nVehContrib="5" flow="600.00" occupancy="8.65" speed="11.18" harmonicMeanSpeed="11.18" length="5.80" nVehEntered="5"/>
    <interval begin="30.00" end="60.00" id="oood4_0" nVehContrib="6" flow="720.00" occupancy="14.91" speed="11.18" harmonicMeanSpeed="11.18" length="8.33" nVehEntered="6"/>
    <interval begin="30.00" end="60.00" id="oood4_1" nVehContrib="3" flow="360.00" occupancy="6.26" speed="11.18" harmonicMeanSpeed="11.18" length="7.00" nVehEntered="3"/>
    <interval begin="30.00" end="60.00" id="oood4_2" nVehContrib="11" flow="1320.00" occupancy="22.97" speed="11.17" harmonicMeanSpeed="11.17" length="7.00" nVehEntered="11"/>
    <interval begin="30.00" end="60.00" id="ooood1_0" nVehContrib="6" flow="720.00" occupancy="2.61" speed="56.19" harmonicMeanSpeed="54.55" length="7.33" nVehEntered="6"/>
    <interval begin="30.00" end="60.00" id="ooood1_1" nVehContrib="5" flow="600.00" occupancy="2.20" speed="46.95" harmonicMeanSpeed="45.81" length="6.20" nVehEntered="5"/>
    <interval begin="30.00" end="60.00" id="ooood1_2" nVehContrib="6" flow="720.00" occupancy="2.61" speed="53.56" harmonicMeanSpeed="51.34" length="7.00" nVehEntered="6"/>
    <interval begin="30.00" end="60.00" id="ooood2_0" nVehContrib="10" flow="1200.00" occupancy="4.35" speed="52.87" harmonicMeanSpeed="50.44" length="6.90" nVehEntered="10"/>
    <interval begin="30.00" end="60.00" id="ooood2_1" nVehContrib="3" flow="360.00" occupancy="1.31" speed="51.09" harmonicMeanSpeed="49.14" length="6.67" nVehEntered="3"/>
    <interval begin="30.00" end="60.00" id="ooood2_2" nVehContrib="4" flow="480.00" occupancy="1.74" speed="47.85" harmonicMeanSpeed="46.92" length="6.25" nVehEntered="4"/>
    <interval begin="30.00" end="60.00" id="ooood3_0" nVehContrib="4" flow="480.00" occupancy="1.74" speed="53.64" harmonicMeanSpeed="53.09" length="7.00" nVehEntered="4"/>
    <interval begin="30.00" end="60.00" id="ooood3_1" nVehContrib="3" flow="360.00" occupancy="1.58" speed="55.94" harmonicMeanSpeed="52.28" length="8.33" nVehEntered="3"/>
    <interval begin="30.00" end="60.00" id="ooood3_2" nVehContrib="5" flow="600.00" occupancy="2.18" speed="53.64" harmonicMeanSpeed="50.08" length="7.00" nVehEntered="5"/>
    <interval begin="30.00" end="60.00" id="ooood4_0" nVehContrib="4" flow="480.00" occupancy="1.74" speed="49.81" harmonicMeanSpeed="47.56" length="6.50" nVehEntered="4"/>
    <interval begin="30.00" end="60.00" id="ooood4_1" nVehContrib="12" flow="1440.00" occupancy="5.50" speed="56.75" harmonicMeanSpeed="52.98" length="7.67" nVehEntered="12"/>
    <interval begin="30.00" end="60.00" id="ooood4_2" nVehContrib="6" flow="720.00" occupancy="2.61" speed="52.36" harmonicMeanSpeed="50.73" length="6.83" nVehEntered="6"/>
    <interval begin="60.00" end="90.00" id="d1_0" nVehContrib="5" flow="600.00" occupancy="10.44" speed="11.18" harmonicMeanSpeed="11.18" length="7.00" nVehEntered="5"/>
    <interval begin="60.00" end="90.00" id="d1_1" nVehContrib="4" flow="480.00" occupancy="9.54" speed="11.18" harmonicMeanSpeed="11.18" length="8.00" nVehEntered="4"/>
    <interval begin="60.00" end="90.00" id="d1_2" nVehContrib="6" flow="720.00" occupancy="16.47" speed="9.74" harmonicMeanSpeed="7.53" length="6.33" nVehEntered="5"/>
    <interval begin="60.00" end="90.00" id="d2_0" nVehContrib="8" flow="960.00" occupancy="17.82" speed="10.63" harmonicMeanSpeed="10.46" length="6.88" nVehEntered="8"/>
    <interval begin="60.00" end="90.00" id="d2_1" nVehContrib="3" flow="360.00" occupancy="7.16" speed="11.18" harmonicMeanSpeed="11.18" length="8.00" nVehEntered="3"/>
    <interval begin="60.00" end="90.00" id="d2_2" nVehContrib="5" flow="600.00" occupancy="9.57" speed="11.18" harmonicMeanSpeed="11.18" length="7.00" nVehEntered="4"/>
    <interval begin="60.00" end="90.00" id="d3_0" nVehContrib="8" flow="960.00" occupancy="15.23" speed="11.18" harmonicMeanSpeed="11.18" length="7.25" nVehEntered="7"/>
    <interval begin="60.00" end="90.00" id="d3_1" nVehContrib="3" flow="360.00" occupancy="6.86" speed="11.18" harmonicMeanSpeed="11.18" length="7.67" nVehEntered="3"/>
    <interval begin="60.00" end="90.00" id="d3_2" nVehContrib="4" flow="480.00" occupancy="8.27" speed="10.79" harmonicMeanSpeed="10.77" length="6.75" nVehEntered="4"/>
    <interval begin="60.00" end="90.00" id="d4_0" nVehContrib="6" flow="720.00" occupancy="13.12" speed="11.18" harmonicMeanSpeed="11.18" length="7.33" nVehEntered="6"/>
    <interval begin="60.00" end="90.00" id="d4_1" nVehContrib="3" flow="360.00" occupancy="6.26" speed="11.18" harmonicMeanSpeed="11.18" length="7.00" nVehEntered="3"/>
    <interval begin="60.00" end="90.00" id="d4_2" nVehContrib="11" flow="1320.00" occupancy="26.16" speed="9.89" harmonicMeanSpeed="9.13" length="6.82" nVehEntered="10"/>
    <interval begin="60.00" end="90.00" id="od1_0" nVehContrib="4" flow="480.00" occupancy="10.89" speed="11.18" harmonicMeanSpeed="11.18" length="7.50" nVehEntered="5"/>
    <interval begin="60.00" end="90.00" id="od1_1" nVehContrib="4" flow="480.00" occupancy="9.54" speed="11.18" harmonicMeanSpeed="11.18" length="8.00" nVehEntered="4"/>
    <interval begin="60.00" end="90.00" id="od1_2" nVehContrib="5" flow="600.00" occupancy="9.24" speed="11.18" harmonicMeanSpeed="11.18" length="6.20" nVehEntered="5"/>
    <interval begin="60.00" end="90.00" id="od2_0" nVehContrib="7" flow="840.00" occupancy="14.77" speed="10.75" harmonicMeanSpeed="10.70" length="6.71" nVehEntered="7"/>
    <interval begin="60.00" end="90.00" id="od2_1" nVehContrib="4" flow="480.00" occupancy="9.24" speed="11.18" harmonicMeanSpeed="11.18" length="7.75" nVehEntered="4"/>
    <interval begin="60.00" end="90.00" id="od2_2" nVehContrib="4" flow="480.00" occupancy="8.65" speed="11.18" harmonicMeanSpeed="11.18" length="7.25" nVehEntered="4"/>
    <interval begin="60.00" end="90.00" id="od3_0" nVehContrib="8" flow="960.00" occupancy="16.99" speed="11.18" harmonicMeanSpeed="11.18" length="7.12" nVehEntered="8"/>
    <interval begin="60.00" end="90.00" id="od3_1" nVehContrib="3" flow="360.00" occupancy="6.86" speed="11.18" harmonicMeanSpeed="11.18" length="7.67" nVehEntered="3"/>
    <interval begin="60.00" end="90.00" id="od3_2" nVehContrib="4" flow="480.00" occupancy="8.05" speed="11.18" harmonicMeanSpeed="11.18" length="6.75" nVehEntered="4"/>
    <interval begin="60.00" end="90.00" id="od4_0" nVehContrib="7" flow="840.00" occupancy="14.61" speed="11.18" harmonicMeanSpeed="11.18" length="7.00" nVehEntered="7"/>
    <interval begin="60.00" end="90.00" id="od4_1" nVehContrib="3" flow="360.00" occupancy="6.26" speed="11.18" harmonicMeanSpeed="11.18" length="7.00" nVehEntered="3"/>
    <interval begin="60.00" end="90.00" id="od4_2" nVehContrib="10" flow="1200.00" occupancy="20.93" speed="10.83" harmonicMeanSpeed="10.69" length="6.70" nVehEntered="10"/>
    <interval begin="60.00" end="90.00" id="ood1_0" nVehContrib="6" flow="720.00" occupancy="13.71" speed="11.18" harmonicMeanSpeed="11.18" length="7.67" nVehEntered="6"/>
    <interval begin="60.00" end="90.00" id="ood1_1" nVehContrib="4" flow="480.00" occupancy="9.54" speed="11.18" harmonicMeanSpeed="11.18" length="8.00" nVehEntered="4"/>
    <interval begin="60.00" end="90.00" id="ood1_2" nVehContrib="4" flow="480.00" occupancy="6.86" speed="11.18" harmonicMeanSpeed="11.18" length="5.75" nVehEntered="4"/>
    <interval begin="60.00" end="90.00" id="ood2_0" nVehContrib="7" flow="840.00" occupancy="13.53" speed="10.88" harmonicMeanSpeed="10.83" length="6.86" nVehEntered="6"/>
    <interval begin="60.00" end="90.00" id="ood2_1" nVehContrib="4" flow="480.00" occupancy="9.24" speed="11.18" harmonicMeanSpeed="11.18" length="7.75" nVehEntered="4"/>
    <interval begin="60.00" end="90.00" id="ood2_2" nVehContrib="5" flow="600.00" occupancy="11.03" speed="11.18" harmonicMeanSpeed="11.18" length="7.40" nVehEntered="5"/>
    <interval begin="60.00" end="90.00" id="ood3_0" nVehContrib="8" flow="960.00" occupancy="16.99" speed="11.18" harmonicMeanSpeed="11.18" length="7.12" nVehEntered="8"/>
    <interval begin="60.00" end="90.00" id="ood3_1" nVehContrib="3" flow="360.00" occupancy="6.86" speed="11.18" harmonicMeanSpeed="11.18" length="7.67" nVehEntered="3"/>
    <interval begin="60.00" end="90.00" id="ood3_2" nVehContrib="5" flow="600.00" occupancy="9.84" speed="11.18" harmonicMeanSpeed="11.18" length="6.60" nVehEntered="5"/>
    <interval begin="60.00" end="90.00" id="ood4_0" nVehContrib="7" flow="840.00" occupancy="13.42" speed="11.18" harmonicMeanSpeed="11.18" length="6.43" nVehEntered="7"/>
    <interval begin="60.00" end="90.00" id="ood4_1" nVehContrib="3" flow="360.00" occupancy="6.30" speed="11.18" harmonicMeanSpeed="11.18" length="7.00" nVehEntered="3"/>
    <interval begin="60.00" end="90.00" id="ood4_2" nVehContrib="9" flow="1080.00" occupancy="17.59" speed="11.18" harmonicMeanSpeed="11.18" length="6.56" nVehEntered="9"/>
    <interval begin="60.00" end="90.00" id="oood1_0" nVehContrib="6" flow="720.00" occupancy="13.73" speed="11.17" harmonicMeanSpeed="11.17" length="7.67" nVehEntered="6"/>
    <interval begin="60.00" end="90.00" id="oood1_1" nVehContrib="3" flow="360.00" occupancy="7.16" speed="11.17" harmonicMeanSpeed="11.17" length="8.00" nVehEntered="3"/>
    <interval begin="60.00" end="90.00" id="oood1_2" nVehContrib="5" flow="600.00" occupancy="8.65" speed="11.18" harmonicMeanSpeed="11.18" length="5.80" nVehEntered="5"/>
    <interval begin="60.00" end="90.00" id="oood2_0" nVehContrib="5" flow="600.00" occupancy="8.94" speed="11.18" harmonicMeanSpeed="11.18" length="6.00" nVehEntered="5"/>
    <interval begin="60.00" end="90.00" id="oood2_1" nVehContrib="4" flow="480.00" occupancy="9.24" speed="11.18" harmonicMeanSpeed="11.18" length="7.75" nVehEntered="4"/>
    <interval begin="60.00" end="90.00" id="oood2_2" nVehContrib="4" flow="480.00" occupancy="9.25" speed="11.17" harmonicMeanSpeed="11.17" length="7.75" nVehEntered="4"/>
    <interval begin="60.00" end="90.00" id="oood3_0" nVehContrib="8" flow="960.00" occupancy="16.81" speed="11.18" harmonicMeanSpeed="11.18" length="7.12" nVehEntered="7"/>
    <interval begin="60.00" end="90.00" id="oood3_1" nVehContrib="3" flow="360.00" occupancy="6.86" speed="11.18" harmonicMeanSpeed="11.18" length="7.67" nVehEntered="3"/>
    <interval begin="60.00" end="90.00" id="oood3_2" nVehContrib="6" flow="720.00" occupancy="11.33" speed="11.18" harmonicMeanSpeed="11.18" length="6.33" nVehEntered="6"/>
    <interval begin="60.00" end="90.00" id="oood4_0" nVehContrib="7" flow="840.00" occupancy="12.69" speed="11.04" harmonicMeanSpeed="11.03" length="6.00" nVehEntered="7"/>
    <interval begin="60.00" end="90.00" id="oood4_1" nVehContrib="3" flow="360.00" occupancy="5.96" speed="11.18" harmonicMeanSpeed="11.18" length="6.67" nVehEntered="3"/>
    <interval begin="60.00" end="90.00" id="oood4_2" nVehContrib="9" flow="1080.00" occupancy="17.89" speed="11.18" harmonicMeanSpeed="11.18" length="6.67" nVehEntered="9"/>