<?xml version="1.0" encoding="UTF-8"?>

<!-- generated on 03/21/20 20:03:19 by Eclipse SUMO GUI Version 1.3.1
<configuration xmlns:xsi="http://www.w3.org/2001/XMLSchema-instance" xsi:noNamespaceSchemaLocation="http://sumo.dlr.de/xsd/sumoConfiguration.xsd">

    <input>
        <net-file value="data/lane3.net.xml"/>
        <route-files value="data/icacc+.rou.xml"/>
        <additional-files value="data/icacc+.det.xml"/>
    </input>

    <output>
        <tripinfo-output value="tripinfo.xml"/>
    </output>

    <time>
        <begin value="0"/>
        <step-length value="0.1"/>
    </time>

    <processing>
        <collision.mingap-factor value="0"/>
    </processing>

    <report>
        <verbose value="true"/>
        <no-step-log value="true"/>
    </report>

    <traci_server>
        <remote-port value="3120"/>
    </traci_server>

    <gui_only>
        <quit-on-end value="true"/>
        <start value="true"/>
        <tracker-interval value="0.1"/>
    </gui_only>

</configuration>
-->

<detector xmlns:xsi="http://www.w3.org/2001/XMLSchema-instance" xsi:noNamespaceSchemaLocation="http://sumo.dlr.de/xsd/det_e1_file.xsd">
    <interval begin="0.00" end="21.20" id="d1_0" nVehContrib="1" flow="169.81" occupancy="2.11" speed="11.18" harmonicMeanSpeed="11.18" length="5.00" nVehEntered="1"/>
    <interval begin="0.00" end="21.20" id="d1_1" nVehContrib="0" flow="0.00" occupancy="0.00" speed="-1.00" harmonicMeanSpeed="-1.00" length="-1.00" nVehEntered="0"/>
    <interval begin="0.00" end="21.20" id="d1_2" nVehContrib="2" flow="339.62" occupancy="6.33" speed="11.18" harmonicMeanSpeed="11.18" length="7.50" nVehEntered="2"/>
    <interval begin="0.00" end="21.20" id="d2_0" nVehContrib="3" flow="509.43" occupancy="10.73" speed="11.18" harmonicMeanSpeed="11.18" length="8.00" nVehEntered="4"/>
    <interval begin="0.00" end="21.20" id="d2_1" nVehContrib="0" flow="0.00" occupancy="0.00" speed="-1.00" harmonicMeanSpeed="-1.00" length="-1.00" nVehEntered="0"/>
    <interval begin="0.00" end="21.20" id="d2_2" nVehContrib="3" flow="509.43" occupancy="7.59" speed="11.18" harmonicMeanSpeed="11.18" length="6.00" nVehEntered="3"/>
    <interval begin="0.00" end="21.20" id="d3_0" nVehContrib="0" flow="0.00" occupancy="0.00" speed="-1.00" harmonicMeanSpeed="-1.00" length="-1.00" nVehEntered="0"/>
    <interval begin="0.00" end="21.20" id="d3_1" nVehContrib="0" flow="0.00" occupancy="0.00" speed="-1.00" harmonicMeanSpeed="-1.00" length="-1.00" nVehEntered="0"/>
    <interval begin="0.00" end="21.20" id="d3_2" nVehContrib="4" flow="679.25" occupancy="11.81" speed="11.18" harmonicMeanSpeed="11.18" length="7.00" nVehEntered="4"/>
    <interval begin="0.00" end="21.20" id="d4_0" nVehContrib="1" flow="169.81" occupancy="3.38" speed="11.18" harmonicMeanSpeed="11.18" length="8.00" nVehEntered="1"/>
    <interval begin="0.00" end="21.20" id="d4_1" nVehContrib="1" flow="169.81" occupancy="2.95" speed="11.18" harmonicMeanSpeed="11.18" length="7.00" nVehEntered="1"/>
    <interval begin="0.00" end="21.20" id="d4_2" nVehContrib="1" flow="169.81" occupancy="2.95" speed="11.18" harmonicMeanSpeed="11.18" length="7.00" nVehEntered="1"/>
    <interval begin="0.00" end="21.20" id="od1_0" nVehContrib="1" flow="169.81" occupancy="3.12" speed="11.18" harmonicMeanSpeed="11.18" length="5.00" nVehEntered="2"/>
    <interval begin="0.00" end="21.20" id="od1_1" nVehContrib="0" flow="0.00" occupancy="0.00" speed="-1.00" harmonicMeanSpeed="-1.00" length="-1.00" nVehEntered="0"/>
    <interval begin="0.00" end="21.20" id="od1_2" nVehContrib="2" flow="339.62" occupancy="6.33" speed="11.18" harmonicMeanSpeed="11.18" length="7.50" nVehEntered="2"/>
    <interval begin="0.00" end="21.20" id="od2_0" nVehContrib="4" flow="679.25" occupancy="12.24" speed="11.18" harmonicMeanSpeed="11.18" length="7.25" nVehEntered="4"/>
    <interval begin="0.00" end="21.20" id="od2_1" nVehContrib="0" flow="0.00" occupancy="0.00" speed="-1.00" harmonicMeanSpeed="-1.00" length="-1.00" nVehEntered="0"/>
    <interval begin="0.00" end="21.20" id="od2_2" nVehContrib="4" flow="679.25" occupancy="10.55" speed="11.18" harmonicMeanSpeed="11.18" length="6.25" nVehEntered="4"/>
    <interval begin="0.00" end="21.20" id="od3_0" nVehContrib="0" flow="0.00" occupancy="0.00" speed="-1.00" harmonicMeanSpeed="-1.00" length="-1.00" nVehEntered="0"/>
    <interval begin="0.00" end="21.20" id="od3_1" nVehContrib="0" flow="0.00" occupancy="0.00" speed="-1.00" harmonicMeanSpeed="-1.00" length="-1.00" nVehEntered="0"/>
    <interval begin="0.00" end="21.20" id="od3_2" nVehContrib="4" flow="679.25" occupancy="11.81" speed="11.18" harmonicMeanSpeed="11.18" length="7.00" nVehEntered="4"/>
    <interval begin="0.00" end="21.20" id="od4_0" nVehContrib="1" flow="169.81" occupancy="3.92" speed="11.18" harmonicMeanSpeed="11.18" length="8.00" nVehEntered="2"/>
    <interval begin="0.00" end="21.20" id="od4_1" nVehContrib="1" flow="169.81" occupancy="2.95" speed="11.18" harmonicMeanSpeed="11.18" length="7.00" nVehEntered="1"/>
    <interval begin="0.00" end="21.20" id="od4_2" nVehContrib="1" flow="169.81" occupancy="2.95" speed="11.18" harmonicMeanSpeed="11.18" length="7.00" nVehEntered="1"/>
    <interval begin="0.00" end="21.20" id="ood1_0" nVehContrib="2" flow="339.62" occupancy="5.06" speed="11.18" harmonicMeanSpeed="11.18" length="6.00" nVehEntered="2"/>
    <interval begin="0.00" end="21.20" id="ood1_1" nVehContrib="0" flow="0.00" occupancy="0.00" speed="-1.00" harmonicMeanSpeed="-1.00" length="-1.00" nVehEntered="0"/>
    <interval begin="0.00" end="21.20" id="ood1_2" nVehContrib="3" flow="509.43" occupancy="10.13" speed="11.18" harmonicMeanSpeed="11.18" length="8.00" nVehEntered="3"/>
    <interval begin="0.00" end="21.20" id="ood2_0" nVehContrib="4" flow="679.25" occupancy="12.24" speed="11.18" harmonicMeanSpeed="11.18" length="7.25" nVehEntered="4"/>
    <interval begin="0.00" end="21.20" id="ood2_1" nVehContrib="0" flow="0.00" occupancy="0.00" speed="-1.00" harmonicMeanSpeed="-1.00" length="-1.00" nVehEntered="0"/>
    <interval begin="0.00" end="21.20" id="ood2_2" nVehContrib="4" flow="679.25" occupancy="10.55" speed="11.18" harmonicMeanSpeed="11.18" length="6.25" nVehEntered="4"/>
    <interval begin="0.00" end="21.20" id="ood3_0" nVehContrib="0" flow="0.00" occupancy="0.00" speed="-1.00" harmonicMeanSpeed="-1.00" length="-1.00" nVehEntered="0"/>
    <interval begin="0.00" end="21.20" id="ood3_1" nVehContrib="0" flow="0.00" occupancy="0.00" speed="-1.00" harmonicMeanSpeed="-1.00" length="-1.00" nVehEntered="0"/>
    <interval begin="0.00" end="21.20" id="ood3_2" nVehContrib="5" flow="849.06" occupancy="15.19" speed="11.18" harmonicMeanSpeed="11.18" length="7.20" nVehEntered="5"/>
    <interval begin="0.00" end="21.20" id="ood4_0" nVehContrib="2" flow="339.62" occupancy="5.91" speed="11.18" harmonicMeanSpeed="11.18" length="7.00" nVehEntered="2"/>
    <interval begin="0.00" end="21.20" id="ood4_1" nVehContrib="1" flow="169.81" occupancy="2.95" speed="11.18" harmonicMeanSpeed="11.18" length="7.00" nVehEntered="1"/>
    <interval begin="0.00" end="21.20" id="ood4_2" nVehContrib="2" flow="339.62" occupancy="6.75" speed="11.18" harmonicMeanSpeed="11.18" length="8.00" nVehEntered="2"/>
    <interval begin="0.00" end="21.20" id="oood1_0" nVehContrib="2" flow="339.62" occupancy="5.06" speed="11.18" harmonicMeanSpeed="11.18" length="6.00" nVehEntered="2"/>
    <interval begin="0.00" end="21.20" id="oood1_1" nVehContrib="0" flow="0.00" occupancy="0.00" speed="-1.00" harmonicMeanSpeed="-1.00" length="-1.00" nVehEntered="0"/>
    <interval begin="0.00" end="21.20" id="oood1_2" nVehContrib="4" flow="679.25" occupancy="15.81" speed="10.14" harmonicMeanSpeed="9.94" length="7.75" nVehEntered="5"/>
    <interval begin="0.00" end="21.20" id="oood2_0" nVehContrib="5" flow="849.06" occupancy="15.83" speed="10.78" harmonicMeanSpeed="10.71" length="7.20" nVehEntered="5"/>
    <interval begin="0.00" end="21.20" id="oood2_1" nVehContrib="0" flow="0.00" occupancy="0.00" speed="-1.00" harmonicMeanSpeed="-1.00" length="-1.00" nVehEntered="0"/>
    <interval begin="0.00" end="21.20" id="oood2_2" nVehContrib="5" flow="849.06" occupancy="13.61" speed="11.03" harmonicMeanSpeed="11.03" length="6.20" nVehEntered="6"/>
    <interval begin="0.00" end="21.20" id="oood3_0" nVehContrib="1" flow="169.81" occupancy="3.80" speed="11.18" harmonicMeanSpeed="11.18" length="9.00" nVehEntered="1"/>
    <interval begin="0.00" end="21.20" id="oood3_1" nVehContrib="0" flow="0.00" occupancy="1.73" speed="-1.00" harmonicMeanSpeed="-1.00" length="-1.00" nVehEntered="1"/>
    <interval begin="0.00" end="21.20" id="oood3_2" nVehContrib="6" flow="1018.87" occupancy="19.45" speed="10.56" harmonicMeanSpeed="10.47" length="7.17" nVehEntered="6"/>
    <interval begin="0.00" end="21.20" id="oood4_0" nVehContrib="2" flow="339.62" occupancy="5.98" speed="11.03" harmonicMeanSpeed="11.02" length="7.00" nVehEntered="2"/>
    <interval begin="0.00" end="21.20" id="oood4_1" nVehContrib="1" flow="169.81" occupancy="2.95" speed="11.18" harmonicMeanSpeed="11.18" length="7.00" nVehEntered="1"/>
    <interval begin="0.00" end="21.20" id="oood4_2" nVehContrib="3" flow="509.43" occupancy="9.85" speed="11.01" harmonicMeanSpeed="11.01" length="7.67" nVehEntered="3"/>
    <interval begin="0.00" end="21.20" id="ooood1_0" nVehContrib="4" flow="679.25" occupancy="5.61" speed="36.15" harmonicMeanSpeed="25.47" length="7.25" nVehEntered="4"/>
    <interval begin="0.00" end="21.20" id="ooood1_1" nVehContrib="2" flow="339.62" occupancy="3.82" speed="44.21" harmonicMeanSpeed="17.57" length="7.50" nVehEntered="4"/>
    <interval begin="0.00" end="21.20" id="ooood1_2" nVehContrib="5" flow="849.06" occupancy="12.36" speed="17.98" harmonicMeanSpeed="12.65" length="6.80" nVehEntered="6"/>
    <interval begin="0.00" end="21.20" id="ooood2_0" nVehContrib="6" flow="1018.87" occupancy="17.58" speed="14.62" harmonicMeanSpeed="11.30" length="7.17" nVehEntered="7"/>
    <interval begin="0.00" end="21.20" id="ooood2_1" nVehContrib="6" flow="1018.87" occupancy="5.05" speed="39.36" harmonicMeanSpeed="36.93" length="6.83" nVehEntered="6"/>
    <interval begin="0.00" end="21.20" id="ooood2_2" nVehContrib="4" flow="679.25" occupancy="10.91" speed="15.06" harmonicMeanSpeed="13.07" length="7.25" nVehEntered="5"/>
    <interval begin="0.00" end="21.20" id="ooood3_0" nVehContrib="4" flow="679.25" occupancy="15.42" speed="16.22" harmonicMeanSpeed="6.94" length="6.75" nVehEntered="5"/>
    <interval begin="0.00" end="21.20" id="ooood3_1" nVehContrib="8" flow="1358.49" occupancy="23.40" speed="19.19" harmonicMeanSpeed="12.09" length="7.75" nVehEntered="9"/>
    <interval begin="0.00" end="21.20" id="ooood3_2" nVehContrib="3" flow="509.43" occupancy="7.53" speed="37.60" harmonicMeanSpeed="16.43" length="7.33" nVehEntered="5"/>
    <interval begin="0.00" end="21.20" id="ooood4_0" nVehContrib="6" flow="1018.87" occupancy="13.40" speed="20.80" harmonicMeanSpeed="12.84" length="6.67" nVehEntered="8"/>
    <interval begin="0.00" end="21.20" id="ooood4_1" nVehContrib="1" flow="169.81" occupancy="3.34" speed="9.89" harmonicMeanSpeed="9.89" length="7.00" nVehEntered="3"/>
    <interval begin="0.00" end="21.20" id="ooood4_2" nVehContrib="4" flow="679.25" occupancy="12.08" speed="12.33" harmonicMeanSpeed="11.35" length="7.50" nVehEntered="4"/>
</detector>
