<?xml version="1.0" encoding="UTF-8"?>

<!-- generated on 01/14/21 14:07:17 by Eclipse SUMO sumo Version 1.8.0
<configuration xmlns:xsi="http://www.w3.org/2001/XMLSchema-instance" xsi:noNamespaceSchemaLocation="http://sumo.dlr.de/xsd/sumoConfiguration.xsd">

    <input>
        <net-file value="data/lane3.net.xml"/>
        <route-files value="data/icacc+.rou.xml"/>
        <additional-files value="data/icacc+.det.xml"/>
    </input>

    <output>
        <tripinfo-output value="tripinfo.xml"/>
    </output>

    <time>
        <begin value="0"/>
        <step-length value="0.1"/>
    </time>

    <processing>
        <collision.mingap-factor value="0"/>
        <time-to-teleport value="-1"/>
        <lanechange.duration value="0.5"/>
    </processing>

    <report>
        <verbose value="true"/>
        <no-step-log value="true"/>
    </report>

    <traci_server>
        <remote-port value="11861"/>
    </traci_server>

    <gui_only>
        <start value="true"/>
        <tracker-interval value="0.1"/>
    </gui_only>

</configuration>
-->

<detector xmlns:xsi="http://www.w3.org/2001/XMLSchema-instance" xsi:noNamespaceSchemaLocation="http://sumo.dlr.de/xsd/det_e1_file.xsd">
    <interval begin="0.00" end="30.00" id="d1_0" nVehContrib="7" flow="840.00" occupancy="15.82" speed="11.16" harmonicMeanSpeed="11.16" length="7.57" nVehEntered="7"/>
    <interval begin="0.00" end="30.00" id="d1_1" nVehContrib="2" flow="240.00" occupancy="3.28" speed="11.18" harmonicMeanSpeed="11.18" length="5.50" nVehEntered="2"/>
    <interval begin="0.00" end="30.00" id="d1_2" nVehContrib="2" flow="240.00" occupancy="3.88" speed="11.18" harmonicMeanSpeed="11.18" length="6.50" nVehEntered="2"/>
    <interval begin="0.00" end="30.00" id="d2_0" nVehContrib="5" flow="600.00" occupancy="10.44" speed="11.18" harmonicMeanSpeed="11.18" length="7.00" nVehEntered="5"/>
    <interval begin="0.00" end="30.00" id="d2_1" nVehContrib="2" flow="240.00" occupancy="2.98" speed="11.18" harmonicMeanSpeed="11.18" length="5.00" nVehEntered="2"/>
    <interval begin="0.00" end="30.00" id="d2_2" nVehContrib="8" flow="960.00" occupancy="17.27" speed="10.99" harmonicMeanSpeed="10.97" length="7.13" nVehEntered="8"/>
    <interval begin="0.00" end="30.00" id="d3_0" nVehContrib="5" flow="600.00" occupancy="10.23" speed="11.18" harmonicMeanSpeed="11.18" length="6.40" nVehEntered="6"/>
    <interval begin="0.00" end="30.00" id="d3_1" nVehContrib="2" flow="240.00" occupancy="4.17" speed="11.18" harmonicMeanSpeed="11.18" length="7.00" nVehEntered="2"/>
    <interval begin="0.00" end="30.00" id="d3_2" nVehContrib="6" flow="720.00" occupancy="12.52" speed="11.18" harmonicMeanSpeed="11.18" length="7.00" nVehEntered="6"/>
    <interval begin="0.00" end="30.00" id="d4_0" nVehContrib="4" flow="480.00" occupancy="9.24" speed="11.18" harmonicMeanSpeed="11.18" length="7.75" nVehEntered="4"/>
    <interval begin="0.00" end="30.00" id="d4_1" nVehContrib="3" flow="360.00" occupancy="6.06" speed="11.18" harmonicMeanSpeed="11.18" length="6.67" nVehEntered="4"/>
    <interval begin="0.00" end="30.00" id="d4_2" nVehContrib="3" flow="360.00" occupancy="5.96" speed="11.18" harmonicMeanSpeed="11.18" length="6.67" nVehEntered="3"/>
    <interval begin="0.00" end="30.00" id="od1_0" nVehContrib="8" flow="960.00" occupancy="18.19" speed="11.18" harmonicMeanSpeed="11.18" length="7.63" nVehEntered="8"/>
    <interval begin="0.00" end="30.00" id="od1_1" nVehContrib="2" flow="240.00" occupancy="4.04" speed="11.18" harmonicMeanSpeed="11.18" length="5.50" nVehEntered="3"/>
    <interval begin="0.00" end="30.00" id="od1_2" nVehContrib="2" flow="240.00" occupancy="3.88" speed="11.18" harmonicMeanSpeed="11.18" length="6.50" nVehEntered="2"/>
    <interval begin="0.00" end="30.00" id="od2_0" nVehContrib="5" flow="600.00" occupancy="10.44" speed="11.18" harmonicMeanSpeed="11.18" length="7.00" nVehEntered="5"/>
    <interval begin="0.00" end="30.00" id="od2_1" nVehContrib="3" flow="360.00" occupancy="4.77" speed="11.18" harmonicMeanSpeed="11.18" length="5.33" nVehEntered="3"/>
    <interval begin="0.00" end="30.00" id="od2_2" nVehContrib="9" flow="1080.00" occupancy="19.48" speed="11.18" harmonicMeanSpeed="11.18" length="7.11" nVehEntered="10"/>
    <interval begin="0.00" end="30.00" id="od3_0" nVehContrib="6" flow="720.00" occupancy="11.93" speed="11.18" harmonicMeanSpeed="11.18" length="6.67" nVehEntered="6"/>
    <interval begin="0.00" end="30.00" id="od3_1" nVehContrib="3" flow="360.00" occupancy="5.96" speed="11.18" harmonicMeanSpeed="11.18" length="6.67" nVehEntered="3"/>
    <interval begin="0.00" end="30.00" id="od3_2" nVehContrib="7" flow="840.00" occupancy="14.91" speed="11.18" harmonicMeanSpeed="11.18" length="7.14" nVehEntered="7"/>
    <interval begin="0.00" end="30.00" id="od4_0" nVehContrib="4" flow="480.00" occupancy="9.83" speed="11.18" harmonicMeanSpeed="11.18" length="7.75" nVehEntered="5"/>
    <interval begin="0.00" end="30.00" id="od4_1" nVehContrib="4" flow="480.00" occupancy="7.75" speed="11.18" harmonicMeanSpeed="11.18" length="6.50" nVehEntered="4"/>
    <interval begin="0.00" end="30.00" id="od4_2" nVehContrib="4" flow="480.00" occupancy="8.65" speed="11.18" harmonicMeanSpeed="11.18" length="7.25" nVehEntered="4"/>
    <interval begin="0.00" end="30.00" id="ood1_0" nVehContrib="9" flow="1080.00" occupancy="19.98" speed="11.18" harmonicMeanSpeed="11.18" length="7.44" nVehEntered="9"/>
    <interval begin="0.00" end="30.00" id="ood1_1" nVehContrib="3" flow="360.00" occupancy="6.32" speed="11.18" harmonicMeanSpeed="11.18" length="6.67" nVehEntered="4"/>
    <interval begin="0.00" end="30.00" id="ood1_2" nVehContrib="2" flow="240.00" occupancy="6.14" speed="11.18" harmonicMeanSpeed="11.18" length="6.50" nVehEntered="3"/>
    <interval begin="0.00" end="30.00" id="ood2_0" nVehContrib="6" flow="720.00" occupancy="12.22" speed="11.18" harmonicMeanSpeed="11.18" length="6.83" nVehEntered="6"/>
    <interval begin="0.00" end="30.00" id="ood2_1" nVehContrib="3" flow="360.00" occupancy="5.67" speed="11.18" harmonicMeanSpeed="11.18" length="5.33" nVehEntered="4"/>
    <interval begin="0.00" end="30.00" id="ood2_2" nVehContrib="10" flow="1200.00" occupancy="21.07" speed="11.07" harmonicMeanSpeed="11.06" length="7.00" nVehEntered="10"/>
    <interval begin="0.00" end="30.00" id="ood3_0" nVehContrib="6" flow="720.00" occupancy="11.93" speed="11.18" harmonicMeanSpeed="11.18" length="6.67" nVehEntered="6"/>
    <interval begin="0.00" end="30.00" id="ood3_1" nVehContrib="3" flow="360.00" occupancy="5.96" speed="11.18" harmonicMeanSpeed="11.18" length="6.67" nVehEntered="3"/>
    <interval begin="0.00" end="30.00" id="ood3_2" nVehContrib="8" flow="960.00" occupancy="17.59" speed="11.18" harmonicMeanSpeed="11.18" length="7.38" nVehEntered="8"/>
    <interval begin="0.00" end="30.00" id="ood4_0" nVehContrib="5" flow="600.00" occupancy="12.11" speed="11.18" harmonicMeanSpeed="11.18" length="7.20" nVehEntered="6"/>
    <interval begin="0.00" end="30.00" id="ood4_1" nVehContrib="4" flow="480.00" occupancy="7.75" speed="11.18" harmonicMeanSpeed="11.18" length="6.50" nVehEntered="4"/>
    <interval begin="0.00" end="30.00" id="ood4_2" nVehContrib="4" flow="480.00" occupancy="8.65" speed="11.18" harmonicMeanSpeed="11.18" length="7.25" nVehEntered="4"/>
    <interval begin="0.00" end="30.00" id="oood1_0" nVehContrib="10" flow="1200.00" occupancy="21.62" speed="11.10" harmonicMeanSpeed="11.10" length="7.20" nVehEntered="10"/>
    <interval begin="0.00" end="30.00" id="oood1_1" nVehContrib="4" flow="480.00" occupancy="8.77" speed="11.11" harmonicMeanSpeed="11.11" length="6.75" nVehEntered="5"/>
    <interval begin="0.00" end="30.00" id="oood1_2" nVehContrib="3" flow="360.00" occupancy="6.27" speed="11.16" harmonicMeanSpeed="11.16" length="7.00" nVehEntered="3"/>
    <interval begin="0.00" end="30.00" id="oood2_0" nVehContrib="6" flow="720.00" occupancy="12.24" speed="11.16" harmonicMeanSpeed="11.16" length="6.83" nVehEntered="6"/>
    <interval begin="0.00" end="30.00" id="oood2_1" nVehContrib="5" flow="600.00" occupancy="8.94" speed="11.18" harmonicMeanSpeed="11.18" length="6.00" nVehEntered="5"/>
    <interval begin="0.00" end="30.00" id="oood2_2" nVehContrib="10" flow="1200.00" occupancy="20.90" speed="11.16" harmonicMeanSpeed="11.16" length="7.00" nVehEntered="10"/>
    <interval begin="0.00" end="30.00" id="oood3_0" nVehContrib="6" flow="720.00" occupancy="11.93" speed="11.18" harmonicMeanSpeed="11.18" length="6.67" nVehEntered="6"/>
    <interval begin="0.00" end="30.00" id="oood3_1" nVehContrib="3" flow="360.00" occupancy="5.96" speed="11.18" harmonicMeanSpeed="11.18" length="6.67" nVehEntered="3"/>
    <interval begin="0.00" end="30.00" id="oood3_2" nVehContrib="9" flow="1080.00" occupancy="19.80" speed="11.14" harmonicMeanSpeed="11.14" length="7.33" nVehEntered="10"/>
    <interval begin="0.00" end="30.00" id="oood4_0" nVehContrib="7" flow="840.00" occupancy="14.61" speed="11.18" harmonicMeanSpeed="11.18" length="7.00" nVehEntered="7"/>
    <interval begin="0.00" end="30.00" id="oood4_1" nVehContrib="4" flow="480.00" occupancy="7.75" speed="11.18" harmonicMeanSpeed="11.18" length="6.50" nVehEntered="4"/>
    <interval begin="0.00" end="30.00" id="oood4_2" nVehContrib="5" flow="600.00" occupancy="11.12" speed="11.10" harmonicMeanSpeed="11.10" length="7.40" nVehEntered="5"/>
    <interval begin="0.00" end="30.00" id="ooood1_0" nVehContrib="10" flow="1200.00" occupancy="6.02" speed="39.33" harmonicMeanSpeed="38.26" length="7.10" nVehEntered="10"/>
    <interval begin="0.00" end="30.00" id="ooood1_1" nVehContrib="10" flow="1200.00" occupancy="6.02" speed="42.66" harmonicMeanSpeed="41.74" length="7.70" nVehEntered="10"/>
    <interval begin="0.00" end="30.00" id="ooood1_2" nVehContrib="5" flow="600.00" occupancy="3.01" speed="36.56" harmonicMeanSpeed="35.36" length="6.60" nVehEntered="5"/>
    <interval begin="0.00" end="30.00" id="ooood2_0" nVehContrib="11" flow="1320.00" occupancy="6.62" speed="35.76" harmonicMeanSpeed="33.86" length="6.45" nVehEntered="11"/>
    <interval begin="0.00" end="30.00" id="ooood2_1" nVehContrib="8" flow="960.00" occupancy="4.81" speed="36.70" harmonicMeanSpeed="35.05" length="6.63" nVehEntered="8"/>
    <interval begin="0.00" end="30.00" id="ooood2_2" nVehContrib="8" flow="960.00" occupancy="4.81" speed="40.86" harmonicMeanSpeed="39.41" length="7.38" nVehEntered="8"/>
    <interval begin="0.00" end="30.00" id="ooood3_0" nVehContrib="8" flow="960.00" occupancy="4.81" speed="37.40" harmonicMeanSpeed="36.39" length="6.75" nVehEntered="8"/>
    <interval begin="0.00" end="30.00" id="ooood3_1" nVehContrib="7" flow="840.00" occupancy="4.21" speed="42.74" harmonicMeanSpeed="41.94" length="7.71" nVehEntered="7"/>
    <interval begin="0.00" end="30.00" id="ooood3_2" nVehContrib="9" flow="1080.00" occupancy="5.42" speed="39.40" harmonicMeanSpeed="39.14" length="7.11" nVehEntered="9"/>
    <interval begin="0.00" end="30.00" id="ooood4_0" nVehContrib="6" flow="720.00" occupancy="3.61" speed="41.55" harmonicMeanSpeed="39.91" length="7.50" nVehEntered="6"/>
    <interval begin="0.00" end="30.00" id="ooood4_1" nVehContrib="11" flow="1320.00" occupancy="6.62" speed="41.30" harmonicMeanSpeed="39.25" length="7.45" nVehEntered="11"/>
    <interval begin="0.00" end="30.00" id="ooood4_2" nVehContrib="2" flow="240.00" occupancy="1.20" speed="33.24" harmonicMeanSpeed="32.32" length="6.00" nVehEntered="2"/>
    <interval begin="30.00" end="60.00" id="d1_0" nVehContrib="12" flow="1440.00" occupancy="24.39" speed="11.08" harmonicMeanSpeed="11.08" length="6.75" nVehEntered="12"/>
    <interval begin="30.00" end="60.00" id="d1_1" nVehContrib="8" flow="960.00" occupancy="17.89" speed="11.18" harmonicMeanSpeed="11.18" length="7.50" nVehEntered="8"/>
    <interval begin="30.00" end="60.00" id="d1_2" nVehContrib="6" flow="720.00" occupancy="13.65" speed="11.03" harmonicMeanSpeed="11.02" length="7.50" nVehEntered="6"/>
    <interval begin="30.00" end="60.00" id="d2_0" nVehContrib="9" flow="1080.00" occupancy="17.29" speed="11.18" harmonicMeanSpeed="11.18" length="6.44" nVehEntered="9"/>
    <interval begin="30.00" end="60.00" id="d2_1" nVehContrib="4" flow="480.00" occupancy="7.75" speed="11.18" harmonicMeanSpeed="11.18" length="6.50" nVehEntered="4"/>
    <interval begin="30.00" end="60.00" id="d2_2" nVehContrib="10" flow="1200.00" occupancy="67.05" speed="6.48" harmonicMeanSpeed="3.42" length="6.90" nVehEntered="11"/>
    <interval begin="30.00" end="60.00" id="d3_0" nVehContrib="8" flow="960.00" occupancy="15.71" speed="11.18" harmonicMeanSpeed="11.18" length="6.88" nVehEntered="7"/>
    <interval begin="30.00" end="60.00" id="d3_1" nVehContrib="4" flow="480.00" occupancy="8.65" speed="11.18" harmonicMeanSpeed="11.18" length="7.25" nVehEntered="4"/>
    <interval begin="30.00" end="60.00" id="d3_2" nVehContrib="9" flow="1080.00" occupancy="40.53" speed="8.71" harmonicMeanSpeed="6.87" length="7.44" nVehEntered="10"/>
    <interval begin="30.00" end="60.00" id="d4_0" nVehContrib="10" flow="1200.00" occupancy="49.38" speed="9.30" harmonicMeanSpeed="5.48" length="7.20" nVehEntered="10"/>
    <interval begin="30.00" end="60.00" id="d4_1" nVehContrib="1" flow="120.00" occupancy="1.69" speed="11.18" harmonicMeanSpeed="11.18" length="6.00" nVehEntered="0"/>
    <interval begin="30.00" end="60.00" id="d4_2" nVehContrib="6" flow="720.00" occupancy="45.77" speed="9.43" harmonicMeanSpeed="3.64" length="8.50" nVehEntered="7"/>
    <interval begin="30.00" end="60.00" id="od1_0" nVehContrib="11" flow="1320.00" occupancy="21.77" speed="11.18" harmonicMeanSpeed="11.18" length="6.64" nVehEntered="11"/>
    <interval begin="30.00" end="60.00" id="od1_1" nVehContrib="8" flow="960.00" occupancy="17.13" speed="11.18" harmonicMeanSpeed="11.18" length="7.50" nVehEntered="7"/>
    <interval begin="30.00" end="60.00" id="od1_2" nVehContrib="7" flow="840.00" occupancy="14.91" speed="11.18" harmonicMeanSpeed="11.18" length="7.14" nVehEntered="7"/>
    <interval begin="30.00" end="60.00" id="od2_0" nVehContrib="10" flow="1200.00" occupancy="20.56" speed="11.18" harmonicMeanSpeed="11.18" length="6.30" nVehEntered="11"/>
    <interval begin="30.00" end="60.00" id="od2_1" nVehContrib="3" flow="360.00" occupancy="5.96" speed="11.18" harmonicMeanSpeed="11.18" length="6.67" nVehEntered="3"/>
    <interval begin="30.00" end="60.00" id="od2_2" nVehContrib="11" flow="1320.00" occupancy="40.90" speed="9.21" harmonicMeanSpeed="5.85" length="6.73" nVehEntered="11"/>
    <interval begin="30.00" end="60.00" id="od3_0" nVehContrib="8" flow="960.00" occupancy="15.50" speed="11.18" harmonicMeanSpeed="11.18" length="6.50" nVehEntered="8"/>
    <interval begin="30.00" end="60.00" id="od3_1" nVehContrib="4" flow="480.00" occupancy="9.24" speed="11.18" harmonicMeanSpeed="11.18" length="7.75" nVehEntered="4"/>
    <interval begin="30.00" end="60.00" id="od3_2" nVehContrib="11" flow="1320.00" occupancy="42.87" speed="8.44" harmonicMeanSpeed="6.29" length="7.36" nVehEntered="11"/>
    <interval begin="30.00" end="60.00" id="od4_0" nVehContrib="11" flow="1320.00" occupancy="23.19" speed="11.10" harmonicMeanSpeed="11.10" length="7.18" nVehEntered="10"/>
    <interval begin="30.00" end="60.00" id="od4_1" nVehContrib="0" flow="0.00" occupancy="0.00" speed="-1.00" harmonicMeanSpeed="-1.00" length="-1.00" nVehEntered="0"/>
    <interval begin="30.00" end="60.00" id="od4_2" nVehContrib="7" flow="840.00" occupancy="18.03" speed="10.84" harmonicMeanSpeed="10.76" length="8.29" nVehEntered="7"/>
    <interval begin="30.00" end="60.00" id="ood1_0" nVehContrib="11" flow="1320.00" occupancy="21.47" speed="11.18" harmonicMeanSpeed="11.18" length="6.55" nVehEntered="11"/>
    <interval begin="30.00" end="60.00" id="ood1_1" nVehContrib="7" flow="840.00" occupancy="14.84" speed="11.18" harmonicMeanSpeed="11.18" length="7.29" nVehEntered="6"/>
    <interval begin="30.00" end="60.00" id="ood1_2" nVehContrib="8" flow="960.00" occupancy="14.43" speed="11.18" harmonicMeanSpeed="11.18" length="7.00" nVehEntered="7"/>
    <interval begin="30.00" end="60.00" id="ood2_0" nVehContrib="10" flow="1200.00" occupancy="19.68" speed="11.18" harmonicMeanSpeed="11.18" length="6.60" nVehEntered="10"/>
    <interval begin="30.00" end="60.00" id="ood2_1" nVehContrib="3" flow="360.00" occupancy="6.74" speed="11.18" harmonicMeanSpeed="11.18" length="6.67" nVehEntered="3"/>
    <interval begin="30.00" end="60.00" id="ood2_2" nVehContrib="11" flow="1320.00" occupancy="24.43" speed="10.74" harmonicMeanSpeed="10.62" length="7.00" nVehEntered="11"/>
    <interval begin="30.00" end="60.00" id="ood3_0" nVehContrib="8" flow="960.00" occupancy="15.50" speed="11.18" harmonicMeanSpeed="11.18" length="6.50" nVehEntered="8"/>
    <interval begin="30.00" end="60.00" id="ood3_1" nVehContrib="4" flow="480.00" occupancy="10.58" speed="11.18" harmonicMeanSpeed="11.18" length="7.75" nVehEntered="5"/>
    <interval begin="30.00" end="60.00" id="ood3_2" nVehContrib="10" flow="1200.00" occupancy="22.07" speed="10.93" harmonicMeanSpeed="10.90" length="7.20" nVehEntered="10"/>
    <interval begin="30.00" end="60.00" id="ood4_0" nVehContrib="11" flow="1320.00" occupancy="22.18" speed="11.18" harmonicMeanSpeed="11.18" length="7.18" nVehEntered="10"/>
    <interval begin="30.00" end="60.00" id="ood4_1" nVehContrib="0" flow="0.00" occupancy="0.00" speed="-1.00" harmonicMeanSpeed="-1.00" length="-1.00" nVehEntered="0"/>
    <interval begin="30.00" end="60.00" id="ood4_2" nVehContrib="7" flow="840.00" occupancy="17.29" speed="11.18" harmonicMeanSpeed="11.18" length="8.29" nVehEntered="7"/>
    <interval begin="30.00" end="60.00" id="oood1_0" nVehContrib="10" flow="1200.00" occupancy="20.13" speed="11.09" harmonicMeanSpeed="11.09" length="6.70" nVehEntered="10"/>
    <interval begin="30.00" end="60.00" id="oood1_1" nVehContrib="6" flow="720.00" occupancy="12.51" speed="11.13" harmonicMeanSpeed="11.13" length="7.33" nVehEntered="5"/>
    <interval begin="30.00" end="60.00" id="oood1_2" nVehContrib="8" flow="960.00" occupancy="17.01" speed="11.17" harmonicMeanSpeed="11.17" length="7.13" nVehEntered="8"/>
    <interval begin="30.00" end="60.00" id="oood2_0" nVehContrib="11" flow="1320.00" occupancy="22.23" speed="11.11" harmonicMeanSpeed="11.11" length="6.73" nVehEntered="11"/>
    <interval begin="30.00" end="60.00" id="oood2_1" nVehContrib="2" flow="240.00" occupancy="3.58" speed="11.18" harmonicMeanSpeed="11.18" length="6.00" nVehEntered="2"/>
    <interval begin="30.00" end="60.00" id="oood2_2" nVehContrib="11" flow="1320.00" occupancy="22.98" speed="11.17" harmonicMeanSpeed="11.17" length="7.00" nVehEntered="11"/>
    <interval begin="30.00" end="60.00" id="oood3_0" nVehContrib="9" flow="1080.00" occupancy="18.03" speed="11.11" harmonicMeanSpeed="11.11" length="6.67" nVehEntered="9"/>
    <interval begin="30.00" end="60.00" id="oood3_1" nVehContrib="5" flow="600.00" occupancy="11.07" speed="11.13" harmonicMeanSpeed="11.13" length="7.40" nVehEntered="5"/>
    <interval begin="30.00" end="60.00" id="oood3_2" nVehContrib="9" flow="1080.00" occupancy="19.34" speed="11.17" harmonicMeanSpeed="11.17" length="7.22" nVehEntered="8"/>
    <interval begin="30.00" end="60.00" id="oood4_0" nVehContrib="10" flow="1200.00" occupancy="22.19" speed="11.10" harmonicMeanSpeed="11.10" length="7.40" nVehEntered="10"/>
    <interval begin="30.00" end="60.00" id="oood4_1" nVehContrib="0" flow="0.00" occupancy="0.00" speed="-1.00" harmonicMeanSpeed="-1.00" length="-1.00" nVehEntered="0"/>
    <interval begin="30.00" end="60.00" id="oood4_2" nVehContrib="7" flow="840.00" occupancy="17.01" speed="11.17" harmonicMeanSpeed="11.17" length="8.14" nVehEntered="7"/>
    <interval begin="30.00" end="60.00" id="ooood1_0" nVehContrib="8" flow="960.00" occupancy="4.81" speed="33.24" harmonicMeanSpeed="32.18" length="6.00" nVehEntered="8"/>
    <interval begin="30.00" end="60.00" id="ooood1_1" nVehContrib="6" flow="720.00" occupancy="3.61" speed="39.70" harmonicMeanSpeed="37.51" length="7.17" nVehEntered="6"/>
    <interval begin="30.00" end="60.00" id="ooood1_2" nVehContrib="8" flow="960.00" occupancy="4.81" speed="36.01" harmonicMeanSpeed="34.82" length="6.50" nVehEntered="8"/>
    <interval begin="30.00" end="60.00" id="ooood2_0" nVehContrib="5" flow="600.00" occupancy="3.01" speed="41.00" harmonicMeanSpeed="38.80" length="7.40" nVehEntered="5"/>
    <interval begin="30.00" end="60.00" id="ooood2_1" nVehContrib="9" flow="1080.00" occupancy="5.42" speed="40.01" harmonicMeanSpeed="38.50" length="7.22" nVehEntered="9"/>
    <interval begin="30.00" end="60.00" id="ooood2_2" nVehContrib="6" flow="720.00" occupancy="3.61" speed="32.32" harmonicMeanSpeed="31.87" length="5.83" nVehEntered="6"/>
    <interval begin="30.00" end="60.00" id="ooood3_0" nVehContrib="4" flow="480.00" occupancy="2.41" speed="38.78" harmonicMeanSpeed="38.38" length="7.00" nVehEntered="4"/>
    <interval begin="30.00" end="60.00" id="ooood3_1" nVehContrib="5" flow="600.00" occupancy="3.01" speed="39.89" harmonicMeanSpeed="39.22" length="7.20" nVehEntered="5"/>
    <interval begin="30.00" end="60.00" id="ooood3_2" nVehContrib="13" flow="1560.00" occupancy="7.82" speed="35.37" harmonicMeanSpeed="33.83" length="6.38" nVehEntered="13"/>
    <interval begin="30.00" end="60.00" id="ooood4_0" nVehContrib="5" flow="600.00" occupancy="3.01" speed="38.78" harmonicMeanSpeed="37.15" length="7.00" nVehEntered="5"/>
    <interval begin="30.00" end="60.00" id="ooood4_1" nVehContrib="6" flow="720.00" occupancy="3.61" speed="34.16" harmonicMeanSpeed="32.57" length="6.17" nVehEntered="6"/>
    <interval begin="30.00" end="60.00" id="ooood4_2" nVehContrib="8" flow="960.00" occupancy="4.81" speed="40.86" harmonicMeanSpeed="39.41" length="7.38" nVehEntered="8"/>
    <interval begin="60.00" end="90.00" id="d1_0" nVehContrib="6" flow="720.00" occupancy="13.14" speed="10.04" harmonicMeanSpeed="9.07" length="6.17" nVehEntered="6"/>
    <interval begin="60.00" end="90.00" id="d1_1" nVehContrib="3" flow="360.00" occupancy="5.96" speed="11.18" harmonicMeanSpeed="11.18" length="6.67" nVehEntered="3"/>
    <interval begin="60.00" end="90.00" id="d1_2" nVehContrib="8" flow="960.00" occupancy="87.48" speed="4.97" harmonicMeanSpeed="2.07" length="6.00" nVehEntered="9"/>
    <interval begin="60.00" end="90.00" id="d2_0" nVehContrib="8" flow="960.00" occupancy="32.99" speed="9.93" harmonicMeanSpeed="6.58" length="7.38" nVehEntered="9"/>
    <interval begin="60.00" end="90.00" id="d2_1" nVehContrib="2" flow="240.00" occupancy="4.47" speed="11.18" harmonicMeanSpeed="11.18" length="7.50" nVehEntered="2"/>
    <interval begin="60.00" end="90.00" id="d2_2" nVehContrib="7" flow="840.00" occupancy="66.34" speed="5.67" harmonicMeanSpeed="3.05" length="7.14" nVehEntered="7"/>
    <interval begin="60.00" end="90.00" id="d3_0" nVehContrib="11" flow="1320.00" occupancy="22.25" speed="11.09" harmonicMeanSpeed="11.09" length="6.73" nVehEntered="11"/>
    <interval begin="60.00" end="90.00" id="d3_1" nVehContrib="5" flow="600.00" occupancy="9.54" speed="11.18" harmonicMeanSpeed="11.18" length="6.40" nVehEntered="5"/>
    <interval begin="60.00" end="90.00" id="d3_2" nVehContrib="4" flow="480.00" occupancy="28.65" speed="4.39" harmonicMeanSpeed="2.63" length="7.75" nVehEntered="3"/>
    <interval begin="60.00" end="90.00" id="d4_0" nVehContrib="9" flow="1080.00" occupancy="17.10" speed="11.12" harmonicMeanSpeed="11.12" length="6.33" nVehEntered="9"/>
    <interval begin="60.00" end="90.00" id="d4_1" nVehContrib="3" flow="360.00" occupancy="5.37" speed="11.18" harmonicMeanSpeed="11.18" length="6.00" nVehEntered="3"/>
    <interval begin="60.00" end="90.00" id="d4_2" nVehContrib="8" flow="960.00" occupancy="49.05" speed="6.84" harmonicMeanSpeed="3.10" length="6.13" nVehEntered="8"/>
    <interval begin="60.00" end="90.00" id="od1_0" nVehContrib="7" flow="840.00" occupancy="12.73" speed="11.18" harmonicMeanSpeed="11.18" length="6.00" nVehEntered="8"/>
    <interval begin="60.00" end="90.00" id="od1_1" nVehContrib="3" flow="360.00" occupancy="5.96" speed="11.18" harmonicMeanSpeed="11.18" length="6.67" nVehEntered="3"/>
    <interval begin="60.00" end="90.00" id="od1_2" nVehContrib="9" flow="1080.00" occupancy="43.33" speed="7.91" harmonicMeanSpeed="5.22" length="6.33" nVehEntered="10"/>
    <interval begin="60.00" end="90.00" id="od2_0" nVehContrib="8" flow="960.00" occupancy="16.41" speed="11.18" harmonicMeanSpeed="11.18" length="7.63" nVehEntered="7"/>
    <interval begin="60.00" end="90.00" id="od2_1" nVehContrib="2" flow="240.00" occupancy="4.47" speed="11.18" harmonicMeanSpeed="11.18" length="7.50" nVehEntered="2"/>
    <interval begin="60.00" end="90.00" id="od2_2" nVehContrib="7" flow="840.00" occupancy="30.76" speed="9.50" harmonicMeanSpeed="9.31" length="7.57" nVehEntered="7"/>
    <interval begin="60.00" end="90.00" id="od3_0" nVehContrib="11" flow="1320.00" occupancy="22.96" speed="11.18" harmonicMeanSpeed="11.18" length="7.00" nVehEntered="11"/>
    <interval begin="60.00" end="90.00" id="od3_1" nVehContrib="4" flow="480.00" occupancy="7.16" speed="11.18" harmonicMeanSpeed="11.18" length="6.00" nVehEntered="4"/>
    <interval begin="60.00" end="90.00" id="od3_2" nVehContrib="2" flow="240.00" occupancy="5.37" speed="11.18" harmonicMeanSpeed="11.18" length="9.00" nVehEntered="2"/>
    <interval begin="60.00" end="90.00" id="od4_0" nVehContrib="8" flow="960.00" occupancy="16.69" speed="11.18" harmonicMeanSpeed="11.18" length="6.25" nVehEntered="9"/>
    <interval begin="60.00" end="90.00" id="od4_1" nVehContrib="4" flow="480.00" occupancy="7.16" speed="11.18" harmonicMeanSpeed="11.18" length="6.00" nVehEntered="4"/>
    <interval begin="60.00" end="90.00" id="od4_2" nVehContrib="8" flow="960.00" occupancy="35.21" speed="9.96" harmonicMeanSpeed="6.33" length="6.25" nVehEntered="9"/>
    <interval begin="60.00" end="90.00" id="ood1_0" nVehContrib="7" flow="840.00" occupancy="14.68" speed="11.18" harmonicMeanSpeed="11.18" length="6.57" nVehEntered="8"/>
    <interval begin="60.00" end="90.00" id="ood1_1" nVehContrib="3" flow="360.00" occupancy="5.96" speed="11.18" harmonicMeanSpeed="11.18" length="6.67" nVehEntered="3"/>
    <interval begin="60.00" end="90.00" id="ood1_2" nVehContrib="10" flow="1200.00" occupancy="66.33" speed="7.10" harmonicMeanSpeed="4.13" length="6.80" nVehEntered="11"/>
    <interval begin="60.00" end="90.00" id="ood2_0" nVehContrib="7" flow="840.00" occupancy="16.51" speed="11.18" harmonicMeanSpeed="11.18" length="7.43" nVehEntered="8"/>
    <interval begin="60.00" end="90.00" id="ood2_1" nVehContrib="3" flow="360.00" occupancy="4.59" speed="11.18" harmonicMeanSpeed="11.18" length="7.00" nVehEntered="2"/>
    <interval begin="60.00" end="90.00" id="ood2_2" nVehContrib="8" flow="960.00" occupancy="17.42" speed="11.10" harmonicMeanSpeed="11.09" length="7.25" nVehEntered="8"/>
    <interval begin="60.00" end="90.00" id="ood3_0" nVehContrib="12" flow="1440.00" occupancy="25.04" speed="11.18" harmonicMeanSpeed="11.18" length="7.00" nVehEntered="12"/>
    <interval begin="60.00" end="90.00" id="ood3_1" nVehContrib="4" flow="480.00" occupancy="5.82" speed="11.18" harmonicMeanSpeed="11.18" length="6.00" nVehEntered="3"/>
    <interval begin="60.00" end="90.00" id="ood3_2" nVehContrib="3" flow="360.00" occupancy="8.05" speed="11.18" harmonicMeanSpeed="11.18" length="9.00" nVehEntered="3"/>
    <interval begin="60.00" end="90.00" id="ood4_0" nVehContrib="8" flow="960.00" occupancy="16.10" speed="11.18" harmonicMeanSpeed="11.18" length="6.75" nVehEntered="8"/>
    <interval begin="60.00" end="90.00" id="ood4_1" nVehContrib="4" flow="480.00" occupancy="7.16" speed="11.18" harmonicMeanSpeed="11.18" length="6.00" nVehEntered="4"/>
    <interval begin="60.00" end="90.00" id="ood4_2" nVehContrib="11" flow="1320.00" occupancy="22.16" speed="10.93" harmonicMeanSpeed="10.91" length="6.55" nVehEntered="11"/>
    <interval begin="60.00" end="90.00" id="oood1_0" nVehContrib="8" flow="960.00" occupancy="16.41" speed="11.17" harmonicMeanSpeed="11.17" length="6.88" nVehEntered="8"/>
    <interval begin="60.00" end="90.00" id="oood1_1" nVehContrib="4" flow="480.00" occupancy="8.65" speed="11.18" harmonicMeanSpeed="11.18" length="7.25" nVehEntered="4"/>
    <interval begin="60.00" end="90.00" id="oood1_2" nVehContrib="11" flow="1320.00" occupancy="43.62" speed="8.03" harmonicMeanSpeed="6.08" length="6.82" nVehEntered="11"/>
    <interval begin="60.00" end="90.00" id="oood2_0" nVehContrib="8" flow="960.00" occupancy="17.05" speed="11.15" harmonicMeanSpeed="11.15" length="7.13" nVehEntered="8"/>
    <interval begin="60.00" end="90.00" id="oood2_1" nVehContrib="2" flow="240.00" occupancy="4.48" speed="11.16" harmonicMeanSpeed="11.16" length="7.50" nVehEntered="2"/>
    <interval begin="60.00" end="90.00" id="oood2_2" nVehContrib="9" flow="1080.00" occupancy="19.10" speed="11.17" harmonicMeanSpeed="11.17" length="7.11" nVehEntered="9"/>
    <interval begin="60.00" end="90.00" id="oood3_0" nVehContrib="12" flow="1440.00" occupancy="24.45" speed="11.05" harmonicMeanSpeed="11.04" length="6.75" nVehEntered="12"/>
    <interval begin="60.00" end="90.00" id="oood3_1" nVehContrib="4" flow="480.00" occupancy="7.47" speed="11.16" harmonicMeanSpeed="11.16" length="6.25" nVehEntered="4"/>
    <interval begin="60.00" end="90.00" id="oood3_2" nVehContrib="4" flow="480.00" occupancy="9.55" speed="11.17" harmonicMeanSpeed="11.17" length="8.00" nVehEntered="4"/>
    <interval begin="60.00" end="90.00" id="oood4_0" nVehContrib="7" flow="840.00" occupancy="13.74" speed="11.16" harmonicMeanSpeed="11.16" length="6.57" nVehEntered="7"/>
    <interval begin="60.00" end="90.00" id="oood4_1" nVehContrib="4" flow="480.00" occupancy="7.16" speed="11.18" harmonicMeanSpeed="11.18" length="6.00" nVehEntered="4"/>