<?xml version="1.0" encoding="UTF-8"?>

<!-- generated on 03/25/20 23:28:59 by Eclipse SUMO GUI Version 1.3.1
<configuration xmlns:xsi="http://www.w3.org/2001/XMLSchema-instance" xsi:noNamespaceSchemaLocation="http://sumo.dlr.de/xsd/sumoConfiguration.xsd">

    <input>
        <net-file value="data/lane3.net.xml"/>
        <route-files value="data/icacc+.rou.xml"/>
        <additional-files value="data/icacc+.det.xml"/>
    </input>

    <output>
        <tripinfo-output value="tripinfo.xml"/>
    </output>

    <time>
        <begin value="0"/>
        <step-length value="0.1"/>
    </time>

    <processing>
        <collision.mingap-factor value="0"/>
    </processing>

    <report>
        <verbose value="true"/>
        <no-step-log value="true"/>
    </report>

    <traci_server>
        <remote-port value="6690"/>
    </traci_server>

    <gui_only>
        <start value="true"/>
        <tracker-interval value="0.1"/>
    </gui_only>

</configuration>
-->

<detector xmlns:xsi="http://www.w3.org/2001/XMLSchema-instance" xsi:noNamespaceSchemaLocation="http://sumo.dlr.de/xsd/det_e1_file.xsd">
    <interval begin="0.00" end="30.00" id="d1_0" nVehContrib="0" flow="0.00" occupancy="0.00" speed="-1.00" harmonicMeanSpeed="-1.00" length="-1.00" nVehEntered="0"/>
    <interval begin="0.00" end="30.00" id="d1_1" nVehContrib="2" flow="240.00" occupancy="4.77" speed="11.18" harmonicMeanSpeed="11.18" length="8.00" nVehEntered="2"/>
    <interval begin="0.00" end="30.00" id="d1_2" nVehContrib="2" flow="240.00" occupancy="4.47" speed="11.18" harmonicMeanSpeed="11.18" length="7.50" nVehEntered="2"/>
    <interval begin="0.00" end="30.00" id="d2_0" nVehContrib="4" flow="480.00" occupancy="8.65" speed="11.18" harmonicMeanSpeed="11.18" length="7.25" nVehEntered="4"/>
    <interval begin="0.00" end="30.00" id="d2_1" nVehContrib="1" flow="120.00" occupancy="2.68" speed="11.18" harmonicMeanSpeed="11.18" length="9.00" nVehEntered="1"/>
    <interval begin="0.00" end="30.00" id="d2_2" nVehContrib="5" flow="600.00" occupancy="10.57" speed="10.68" harmonicMeanSpeed="10.59" length="6.80" nVehEntered="5"/>
    <interval begin="0.00" end="30.00" id="d3_0" nVehContrib="4" flow="480.00" occupancy="9.54" speed="11.18" harmonicMeanSpeed="11.18" length="8.00" nVehEntered="4"/>
    <interval begin="0.00" end="30.00" id="d3_1" nVehContrib="0" flow="0.00" occupancy="0.43" speed="-1.00" harmonicMeanSpeed="-1.00" length="-1.00" nVehEntered="1"/>
    <interval begin="0.00" end="30.00" id="d3_2" nVehContrib="5" flow="600.00" occupancy="11.43" speed="10.80" harmonicMeanSpeed="10.77" length="7.40" nVehEntered="5"/>
    <interval begin="0.00" end="30.00" id="d4_0" nVehContrib="0" flow="0.00" occupancy="0.00" speed="-1.00" harmonicMeanSpeed="-1.00" length="-1.00" nVehEntered="0"/>
    <interval begin="0.00" end="30.00" id="d4_1" nVehContrib="1" flow="120.00" occupancy="2.86" speed="11.18" harmonicMeanSpeed="11.18" length="9.00" nVehEntered="2"/>
    <interval begin="0.00" end="30.00" id="d4_2" nVehContrib="5" flow="600.00" occupancy="10.46" speed="10.67" harmonicMeanSpeed="10.55" length="6.60" nVehEntered="5"/>
    <interval begin="0.00" end="30.00" id="od1_0" nVehContrib="0" flow="0.00" occupancy="0.00" speed="-1.00" harmonicMeanSpeed="-1.00" length="-1.00" nVehEntered="0"/>
    <interval begin="0.00" end="30.00" id="od1_1" nVehContrib="2" flow="240.00" occupancy="4.77" speed="11.18" harmonicMeanSpeed="11.18" length="8.00" nVehEntered="2"/>
    <interval begin="0.00" end="30.00" id="od1_2" nVehContrib="3" flow="360.00" occupancy="6.86" speed="11.18" harmonicMeanSpeed="11.18" length="7.67" nVehEntered="3"/>
    <interval begin="0.00" end="30.00" id="od2_0" nVehContrib="4" flow="480.00" occupancy="8.65" speed="11.18" harmonicMeanSpeed="11.18" length="7.25" nVehEntered="4"/>
    <interval begin="0.00" end="30.00" id="od2_1" nVehContrib="1" flow="120.00" occupancy="2.68" speed="11.18" harmonicMeanSpeed="11.18" length="9.00" nVehEntered="1"/>
    <interval begin="0.00" end="30.00" id="od2_2" nVehContrib="6" flow="720.00" occupancy="11.93" speed="11.18" harmonicMeanSpeed="11.18" length="6.67" nVehEntered="6"/>
    <interval begin="0.00" end="30.00" id="od3_0" nVehContrib="5" flow="600.00" occupancy="11.93" speed="11.18" harmonicMeanSpeed="11.18" length="8.00" nVehEntered="5"/>
    <interval begin="0.00" end="30.00" id="od3_1" nVehContrib="1" flow="120.00" occupancy="1.49" speed="11.18" harmonicMeanSpeed="11.18" length="5.00" nVehEntered="1"/>
    <interval begin="0.00" end="30.00" id="od3_2" nVehContrib="5" flow="600.00" occupancy="11.03" speed="11.18" harmonicMeanSpeed="11.18" length="7.40" nVehEntered="5"/>
    <interval begin="0.00" end="30.00" id="od4_0" nVehContrib="0" flow="0.00" occupancy="0.00" speed="-1.00" harmonicMeanSpeed="-1.00" length="-1.00" nVehEntered="0"/>
    <interval begin="0.00" end="30.00" id="od4_1" nVehContrib="2" flow="240.00" occupancy="5.37" speed="11.18" harmonicMeanSpeed="11.18" length="9.00" nVehEntered="2"/>
    <interval begin="0.00" end="30.00" id="od4_2" nVehContrib="5" flow="600.00" occupancy="9.84" speed="11.18" harmonicMeanSpeed="11.18" length="6.60" nVehEntered="5"/>
    <interval begin="0.00" end="30.00" id="ood1_0" nVehContrib="1" flow="120.00" occupancy="1.79" speed="11.18" harmonicMeanSpeed="11.18" length="6.00" nVehEntered="1"/>
    <interval begin="0.00" end="30.00" id="ood1_1" nVehContrib="2" flow="240.00" occupancy="5.96" speed="11.18" harmonicMeanSpeed="11.18" length="8.00" nVehEntered="3"/>
    <interval begin="0.00" end="30.00" id="ood1_2" nVehContrib="3" flow="360.00" occupancy="6.86" speed="11.18" harmonicMeanSpeed="11.18" length="7.67" nVehEntered="3"/>
    <interval begin="0.00" end="30.00" id="ood2_0" nVehContrib="4" flow="480.00" occupancy="8.65" speed="11.18" harmonicMeanSpeed="11.18" length="7.25" nVehEntered="4"/>
    <interval begin="0.00" end="30.00" id="ood2_1" nVehContrib="2" flow="240.00" occupancy="4.77" speed="11.18" harmonicMeanSpeed="11.18" length="8.00" nVehEntered="2"/>
    <interval begin="0.00" end="30.00" id="ood2_2" nVehContrib="7" flow="840.00" occupancy="14.31" speed="11.18" harmonicMeanSpeed="11.18" length="6.86" nVehEntered="7"/>
    <interval begin="0.00" end="30.00" id="ood3_0" nVehContrib="5" flow="600.00" occupancy="11.93" speed="11.18" harmonicMeanSpeed="11.18" length="8.00" nVehEntered="5"/>
    <interval begin="0.00" end="30.00" id="ood3_1" nVehContrib="1" flow="120.00" occupancy="1.49" speed="11.18" harmonicMeanSpeed="11.18" length="5.00" nVehEntered="1"/>
    <interval begin="0.00" end="30.00" id="ood3_2" nVehContrib="6" flow="720.00" occupancy="13.12" speed="11.18" harmonicMeanSpeed="11.18" length="7.33" nVehEntered="6"/>
    <interval begin="0.00" end="30.00" id="ood4_0" nVehContrib="0" flow="0.00" occupancy="0.00" speed="-1.00" harmonicMeanSpeed="-1.00" length="-1.00" nVehEntered="0"/>
    <interval begin="0.00" end="30.00" id="ood4_1" nVehContrib="2" flow="240.00" occupancy="5.37" speed="11.18" harmonicMeanSpeed="11.18" length="9.00" nVehEntered="2"/>
    <interval begin="0.00" end="30.00" id="ood4_2" nVehContrib="5" flow="600.00" occupancy="11.18" speed="11.18" harmonicMeanSpeed="11.18" length="6.60" nVehEntered="6"/>
    <interval begin="0.00" end="30.00" id="oood1_0" nVehContrib="1" flow="120.00" occupancy="1.79" speed="11.18" harmonicMeanSpeed="11.18" length="6.00" nVehEntered="1"/>
    <interval begin="0.00" end="30.00" id="oood1_1" nVehContrib="3" flow="360.00" occupancy="7.17" speed="11.16" harmonicMeanSpeed="11.16" length="8.00" nVehEntered="3"/>
    <interval begin="0.00" end="30.00" id="oood1_2" nVehContrib="3" flow="360.00" occupancy="6.86" speed="11.18" harmonicMeanSpeed="11.18" length="7.67" nVehEntered="3"/>
    <interval begin="0.00" end="30.00" id="oood2_0" nVehContrib="4" flow="480.00" occupancy="8.65" speed="11.17" harmonicMeanSpeed="11.17" length="7.25" nVehEntered="4"/>
    <interval begin="0.00" end="30.00" id="oood2_1" nVehContrib="3" flow="360.00" occupancy="7.47" speed="11.15" harmonicMeanSpeed="11.15" length="8.33" nVehEntered="3"/>
    <interval begin="0.00" end="30.00" id="oood2_2" nVehContrib="7" flow="840.00" occupancy="14.33" speed="11.16" harmonicMeanSpeed="11.16" length="6.86" nVehEntered="7"/>
    <interval begin="0.00" end="30.00" id="oood3_0" nVehContrib="6" flow="720.00" occupancy="13.44" speed="11.16" harmonicMeanSpeed="11.16" length="7.50" nVehEntered="6"/>
    <interval begin="0.00" end="30.00" id="oood3_1" nVehContrib="1" flow="120.00" occupancy="1.49" speed="11.18" harmonicMeanSpeed="11.18" length="5.00" nVehEntered="1"/>
    <interval begin="0.00" end="30.00" id="oood3_2" nVehContrib="7" flow="840.00" occupancy="14.64" speed="11.16" harmonicMeanSpeed="11.16" length="7.00" nVehEntered="7"/>
    <interval begin="0.00" end="30.00" id="oood4_0" nVehContrib="0" flow="0.00" occupancy="0.00" speed="-1.00" harmonicMeanSpeed="-1.00" length="-1.00" nVehEntered="0"/>
    <interval begin="0.00" end="30.00" id="oood4_1" nVehContrib="2" flow="240.00" occupancy="5.37" speed="11.18" harmonicMeanSpeed="11.18" length="9.00" nVehEntered="2"/>
    <interval begin="0.00" end="30.00" id="oood4_2" nVehContrib="6" flow="720.00" occupancy="11.35" speed="11.16" harmonicMeanSpeed="11.16" length="6.33" nVehEntered="6"/>
    <interval begin="0.00" end="30.00" id="ooood1_0" nVehContrib="6" flow="720.00" occupancy="4.86" speed="34.43" harmonicMeanSpeed="27.87" length="7.17" nVehEntered="8"/>
    <interval begin="0.00" end="30.00" id="ooood1_1" nVehContrib="2" flow="240.00" occupancy="4.38" speed="10.82" harmonicMeanSpeed="10.32" length="7.00" nVehEntered="6"/>
    <interval begin="0.00" end="30.00" id="ooood1_2" nVehContrib="3" flow="360.00" occupancy="4.58" speed="21.26" harmonicMeanSpeed="14.30" length="7.00" nVehEntered="6"/>
    <interval begin="0.00" end="30.00" id="ooood2_0" nVehContrib="1" flow="120.00" occupancy="2.03" speed="11.52" harmonicMeanSpeed="11.52" length="7.00" nVehEntered="7"/>
    <interval begin="0.00" end="30.00" id="ooood2_1" nVehContrib="12" flow="1440.00" occupancy="14.48" speed="28.69" harmonicMeanSpeed="20.16" length="7.25" nVehEntered="16"/>
    <interval begin="0.00" end="30.00" id="ooood2_2" nVehContrib="4" flow="480.00" occupancy="8.54" speed="11.97" harmonicMeanSpeed="11.17" length="7.25" nVehEntered="8"/>
    <interval begin="0.00" end="30.00" id="ooood3_0" nVehContrib="3" flow="360.00" occupancy="6.41" speed="9.80" harmonicMeanSpeed="9.64" length="6.33" nVehEntered="7"/>
    <interval begin="0.00" end="30.00" id="ooood3_1" nVehContrib="9" flow="1080.00" occupancy="7.37" speed="35.71" harmonicMeanSpeed="25.48" length="7.11" nVehEntered="15"/>
    <interval begin="0.00" end="30.00" id="ooood3_2" nVehContrib="7" flow="840.00" occupancy="14.20" speed="14.06" harmonicMeanSpeed="11.67" length="7.14" nVehEntered="8"/>
    <interval begin="0.00" end="30.00" id="ooood4_0" nVehContrib="7" flow="840.00" occupancy="4.43" speed="36.84" harmonicMeanSpeed="35.06" length="7.00" nVehEntered="8"/>
    <interval begin="0.00" end="30.00" id="ooood4_1" nVehContrib="2" flow="240.00" occupancy="4.05" speed="14.81" harmonicMeanSpeed="14.81" length="9.00" nVehEntered="2"/>
    <interval begin="0.00" end="30.00" id="ooood4_2" nVehContrib="4" flow="480.00" occupancy="10.10" speed="10.68" harmonicMeanSpeed="10.48" length="8.00" nVehEntered="5"/>
    <interval begin="30.00" end="60.00" id="d1_0" nVehContrib="3" flow="360.00" occupancy="5.37" speed="11.18" harmonicMeanSpeed="11.18" length="6.00" nVehEntered="3"/>
    <interval begin="30.00" end="60.00" id="d1_1" nVehContrib="2" flow="240.00" occupancy="4.17" speed="11.18" harmonicMeanSpeed="11.18" length="7.00" nVehEntered="2"/>
    <interval begin="30.00" end="60.00" id="d1_2" nVehContrib="7" flow="840.00" occupancy="24.86" speed="9.31" harmonicMeanSpeed="7.18" length="7.14" nVehEntered="7"/>
    <interval begin="30.00" end="60.00" id="d2_0" nVehContrib="1" flow="120.00" occupancy="2.09" speed="11.18" harmonicMeanSpeed="11.18" length="7.00" nVehEntered="1"/>
    <interval begin="30.00" end="60.00" id="d2_1" nVehContrib="7" flow="840.00" occupancy="15.50" speed="11.18" harmonicMeanSpeed="11.18" length="7.43" nVehEntered="7"/>
    <interval begin="30.00" end="60.00" id="d2_2" nVehContrib="6" flow="720.00" occupancy="24.94" speed="11.01" harmonicMeanSpeed="11.00" length="6.17" nVehEntered="7"/>
    <interval begin="30.00" end="60.00" id="d3_0" nVehContrib="4" flow="480.00" occupancy="7.45" speed="11.18" harmonicMeanSpeed="11.18" length="6.25" nVehEntered="4"/>
    <interval begin="30.00" end="60.00" id="d3_1" nVehContrib="4" flow="480.00" occupancy="5.83" speed="11.18" harmonicMeanSpeed="11.18" length="5.25" nVehEntered="3"/>
    <interval begin="30.00" end="60.00" id="d3_2" nVehContrib="8" flow="960.00" occupancy="16.95" speed="10.60" harmonicMeanSpeed="10.48" length="6.75" nVehEntered="8"/>
    <interval begin="30.00" end="60.00" id="d4_0" nVehContrib="2" flow="240.00" occupancy="4.47" speed="11.18" harmonicMeanSpeed="11.18" length="7.50" nVehEntered="2"/>
    <interval begin="30.00" end="60.00" id="d4_1" nVehContrib="6" flow="720.00" occupancy="15.20" speed="11.18" harmonicMeanSpeed="11.18" length="7.67" nVehEntered="6"/>
    <interval begin="30.00" end="60.00" id="d4_2" nVehContrib="7" flow="840.00" occupancy="14.65" speed="10.75" harmonicMeanSpeed="10.64" length="6.71" nVehEntered="7"/>
    <interval begin="30.00" end="60.00" id="od1_0" nVehContrib="3" flow="360.00" occupancy="5.37" speed="11.18" harmonicMeanSpeed="11.18" length="6.00" nVehEntered="3"/>
    <interval begin="30.00" end="60.00" id="od1_1" nVehContrib="2" flow="240.00" occupancy="4.17" speed="11.18" harmonicMeanSpeed="11.18" length="7.00" nVehEntered="2"/>
    <interval begin="30.00" end="60.00" id="od1_2" nVehContrib="7" flow="840.00" occupancy="15.21" speed="11.18" harmonicMeanSpeed="11.18" length="7.29" nVehEntered="7"/>
    <interval begin="30.00" end="60.00" id="od2_0" nVehContrib="1" flow="120.00" occupancy="2.09" speed="11.18" harmonicMeanSpeed="11.18" length="7.00" nVehEntered="1"/>
    <interval begin="30.00" end="60.00" id="od2_1" nVehContrib="8" flow="960.00" occupancy="16.99" speed="11.18" harmonicMeanSpeed="11.18" length="7.13" nVehEntered="8"/>
    <interval begin="30.00" end="60.00" id="od2_2" nVehContrib="6" flow="720.00" occupancy="10.73" speed="11.18" harmonicMeanSpeed="11.18" length="6.00" nVehEntered="6"/>
    <interval begin="30.00" end="60.00" id="od3_0" nVehContrib="3" flow="360.00" occupancy="5.07" speed="11.18" harmonicMeanSpeed="11.18" length="5.67" nVehEntered="3"/>
    <interval begin="30.00" end="60.00" id="od3_1" nVehContrib="3" flow="360.00" occupancy="5.17" speed="11.18" harmonicMeanSpeed="11.18" length="5.33" nVehEntered="4"/>
    <interval begin="30.00" end="60.00" id="od3_2" nVehContrib="8" flow="960.00" occupancy="16.10" speed="11.18" harmonicMeanSpeed="11.18" length="6.75" nVehEntered="8"/>
    <interval begin="30.00" end="60.00" id="od4_0" nVehContrib="2" flow="240.00" occupancy="4.47" speed="11.18" harmonicMeanSpeed="11.18" length="7.50" nVehEntered="2"/>
    <interval begin="30.00" end="60.00" id="od4_1" nVehContrib="6" flow="720.00" occupancy="13.71" speed="11.18" harmonicMeanSpeed="11.18" length="7.67" nVehEntered="6"/>
    <interval begin="30.00" end="60.00" id="od4_2" nVehContrib="7" flow="840.00" occupancy="14.01" speed="11.18" harmonicMeanSpeed="11.18" length="6.71" nVehEntered="7"/>
    <interval begin="30.00" end="60.00" id="ood1_0" nVehContrib="2" flow="240.00" occupancy="3.58" speed="11.18" harmonicMeanSpeed="11.18" length="6.00" nVehEntered="2"/>
    <interval begin="30.00" end="60.00" id="ood1_1" nVehContrib="2" flow="240.00" occupancy="2.98" speed="11.18" harmonicMeanSpeed="11.18" length="7.00" nVehEntered="1"/>
    <interval begin="30.00" end="60.00" id="ood1_2" nVehContrib="8" flow="960.00" occupancy="16.70" speed="11.18" harmonicMeanSpeed="11.18" length="7.00" nVehEntered="8"/>
    <interval begin="30.00" end="60.00" id="ood2_0" nVehContrib="1" flow="120.00" occupancy="2.28" speed="11.18" harmonicMeanSpeed="11.18" length="7.00" nVehEntered="2"/>
    <interval begin="30.00" end="60.00" id="ood2_1" nVehContrib="7" flow="840.00" occupancy="14.91" speed="11.18" harmonicMeanSpeed="11.18" length="7.14" nVehEntered="7"/>
    <interval begin="30.00" end="60.00" id="ood2_2" nVehContrib="6" flow="720.00" occupancy="10.14" speed="11.18" harmonicMeanSpeed="11.18" length="5.67" nVehEntered="6"/>
    <interval begin="30.00" end="60.00" id="ood3_0" nVehContrib="3" flow="360.00" occupancy="5.07" speed="11.18" harmonicMeanSpeed="11.18" length="5.67" nVehEntered="3"/>
    <interval begin="30.00" end="60.00" id="ood3_1" nVehContrib="4" flow="480.00" occupancy="7.16" speed="11.18" harmonicMeanSpeed="11.18" length="6.00" nVehEntered="4"/>
    <interval begin="30.00" end="60.00" id="ood3_2" nVehContrib="7" flow="840.00" occupancy="14.28" speed="11.18" harmonicMeanSpeed="11.18" length="6.71" nVehEntered="8"/>
    <interval begin="30.00" end="60.00" id="ood4_0" nVehContrib="2" flow="240.00" occupancy="4.47" speed="11.18" harmonicMeanSpeed="11.18" length="7.50" nVehEntered="2"/>
    <interval begin="30.00" end="60.00" id="ood4_1" nVehContrib="7" flow="840.00" occupancy="15.80" speed="11.18" harmonicMeanSpeed="11.18" length="7.57" nVehEntered="7"/>
    <interval begin="30.00" end="60.00" id="ood4_2" nVehContrib="8" flow="960.00" occupancy="14.17" speed="11.18" harmonicMeanSpeed="11.18" length="6.50" nVehEntered="7"/>
    <interval begin="30.00" end="60.00" id="oood1_0" nVehContrib="2" flow="240.00" occupancy="5.89" speed="11.13" harmonicMeanSpeed="11.13" length="6.00" nVehEntered="3"/>
    <interval begin="30.00" end="60.00" id="oood1_1" nVehContrib="1" flow="120.00" occupancy="1.79" speed="11.16" harmonicMeanSpeed="11.16" length="6.00" nVehEntered="1"/>
    <interval begin="30.00" end="60.00" id="oood1_2" nVehContrib="8" flow="960.00" occupancy="16.76" speed="11.14" harmonicMeanSpeed="11.14" length="7.00" nVehEntered="8"/>
    <interval begin="30.00" end="60.00" id="oood2_0" nVehContrib="2" flow="240.00" occupancy="4.49" speed="11.14" harmonicMeanSpeed="11.14" length="7.50" nVehEntered="2"/>
    <interval begin="30.00" end="60.00" id="oood2_1" nVehContrib="6" flow="720.00" occupancy="12.25" speed="11.15" harmonicMeanSpeed="11.15" length="6.83" nVehEntered="6"/>
    <interval begin="30.00" end="60.00" id="oood2_2" nVehContrib="6" flow="720.00" occupancy="10.19" speed="11.12" harmonicMeanSpeed="11.12" length="5.67" nVehEntered="6"/>
    <interval begin="30.00" end="60.00" id="oood3_0" nVehContrib="2" flow="240.00" occupancy="3.59" speed="11.16" harmonicMeanSpeed="11.16" length="6.00" nVehEntered="2"/>
    <interval begin="30.00" end="60.00" id="oood3_1" nVehContrib="4" flow="480.00" occupancy="7.18" speed="11.15" harmonicMeanSpeed="11.15" length="6.00" nVehEntered="4"/>
    <interval begin="30.00" end="60.00" id="oood3_2" nVehContrib="7" flow="840.00" occupancy="14.66" speed="11.15" harmonicMeanSpeed="11.15" length="7.00" nVehEntered="7"/>
    <interval begin="30.00" end="60.00" id="oood4_0" nVehContrib="3" flow="360.00" occupancy="7.18" speed="11.14" harmonicMeanSpeed="11.14" length="8.00" nVehEntered="3"/>
    <interval begin="30.00" end="60.00" id="oood4_1" nVehContrib="7" flow="840.00" occupancy="15.85" speed="11.15" harmonicMeanSpeed="11.15" length="7.57" nVehEntered="7"/>
    <interval begin="30.00" end="60.00" id="oood4_2" nVehContrib="8" flow="960.00" occupancy="16.16" speed="11.14" harmonicMeanSpeed="11.14" length="6.75" nVehEntered="8"/>
    <interval begin="30.00" end="60.00" id="ooood1_0" nVehContrib="4" flow="480.00" occupancy="11.92" speed="9.43" harmonicMeanSpeed="6.42" length="6.50" nVehEntered="9"/>
    <interval begin="30.00" end="60.00" id="ooood1_1" nVehContrib="1" flow="120.00" occupancy="5.70" speed="12.70" harmonicMeanSpeed="12.70" length="9.00" nVehEntered="9"/>
    <interval begin="30.00" end="60.00" id="ooood1_2" nVehContrib="8" flow="960.00" occupancy="15.87" speed="12.65" harmonicMeanSpeed="11.69" length="7.38" nVehEntered="10"/>
    <interval begin="30.00" end="60.00" id="ooood2_0" nVehContrib="2" flow="240.00" occupancy="2.99" speed="18.10" harmonicMeanSpeed="14.38" length="6.00" nVehEntered="4"/>
    <interval begin="30.00" end="60.00" id="ooood2_1" nVehContrib="8" flow="960.00" occupancy="22.17" speed="9.08" harmonicMeanSpeed="7.89" length="6.88" nVehEntered="12"/>
    <interval begin="30.00" end="60.00" id="ooood2_2" nVehContrib="6" flow="720.00" occupancy="13.99" speed="9.55" harmonicMeanSpeed="9.22" length="6.67" nVehEntered="10"/>
    <interval begin="30.00" end="60.00" id="ooood3_0" nVehContrib="2" flow="240.00" occupancy="11.65" speed="8.65" harmonicMeanSpeed="8.36" length="5.50" nVehEntered="4"/>
    <interval begin="30.00" end="60.00" id="ooood3_1" nVehContrib="5" flow="600.00" occupancy="18.39" speed="7.93" harmonicMeanSpeed="6.34" length="6.80" nVehEntered="10"/>
    <interval begin="30.00" end="60.00" id="ooood3_2" nVehContrib="6" flow="720.00" occupancy="20.75" speed="7.43" harmonicMeanSpeed="5.75" length="6.50" nVehEntered="8"/>
    <interval begin="30.00" end="60.00" id="ooood4_0" nVehContrib="3" flow="360.00" occupancy="6.23" speed="13.14" harmonicMeanSpeed="12.93" length="8.00" nVehEntered="8"/>
    <interval begin="30.00" end="60.00" id="ooood4_1" nVehContrib="6" flow="720.00" occupancy="13.15" speed="11.20" harmonicMeanSpeed="10.28" length="7.00" nVehEntered="11"/>
    <interval begin="30.00" end="60.00" id="ooood4_2" nVehContrib="6" flow="720.00" occupancy="13.15" speed="9.47" harmonicMeanSpeed="9.16" length="6.17" nVehEntered="7"/>
    <interval begin="60.00" end="90.00" id="d1_0" nVehContrib="6" flow="720.00" occupancy="19.18" speed="8.77" harmonicMeanSpeed="6.73" length="6.83" nVehEntered="6"/>
    <interval begin="60.00" end="90.00" id="d1_1" nVehContrib="0" flow="0.00" occupancy="0.00" speed="-1.00" harmonicMeanSpeed="-1.00" length="-1.00" nVehEntered="0"/>
    <interval begin="60.00" end="90.00" id="d1_2" nVehContrib="8" flow="960.00" occupancy="28.45" speed="8.96" harmonicMeanSpeed="7.17" length="7.00" nVehEntered="9"/>
    <interval begin="60.00" end="90.00" id="d2_0" nVehContrib="1" flow="120.00" occupancy="2.39" speed="11.18" harmonicMeanSpeed="11.18" length="8.00" nVehEntered="1"/>
    <interval begin="60.00" end="90.00" id="d2_1" nVehContrib="9" flow="1080.00" occupancy="23.22" speed="9.82" harmonicMeanSpeed="9.63" length="7.44" nVehEntered="9"/>
    <interval begin="60.00" end="90.00" id="d2_2" nVehContrib="5" flow="600.00" occupancy="25.70" speed="7.16" harmonicMeanSpeed="2.40" length="6.60" nVehEntered="4"/>
    <interval begin="60.00" end="90.00" id="d3_0" nVehContrib="1" flow="120.00" occupancy="2.68" speed="11.18" harmonicMeanSpeed="11.18" length="9.00" nVehEntered="1"/>
    <interval begin="60.00" end="90.00" id="d3_1" nVehContrib="7" flow="840.00" occupancy="20.26" speed="9.90" harmonicMeanSpeed="8.58" length="7.29" nVehEntered="7"/>
    <interval begin="60.00" end="90.00" id="d3_2" nVehContrib="7" flow="840.00" occupancy="30.90" speed="7.60" harmonicMeanSpeed="5.63" length="6.86" nVehEntered="8"/>
    <interval begin="60.00" end="90.00" id="d4_0" nVehContrib="2" flow="240.00" occupancy="4.47" speed="11.18" harmonicMeanSpeed="11.18" length="7.50" nVehEntered="2"/>
    <interval begin="60.00" end="90.00" id="d4_1" nVehContrib="4" flow="480.00" occupancy="8.13" speed="10.38" harmonicMeanSpeed="10.31" length="7.50" nVehEntered="3"/>
    <interval begin="60.00" end="90.00" id="d4_2" nVehContrib="5" flow="600.00" occupancy="14.77" speed="9.68" harmonicMeanSpeed="8.06" length="7.20" nVehEntered="5"/>
    <interval begin="60.00" end="90.00" id="od1_0" nVehContrib="6" flow="720.00" occupancy="12.22" speed="11.18" harmonicMeanSpeed="11.18" length="6.83" nVehEntered="6"/>
    <interval begin="60.00" end="90.00" id="od1_1" nVehContrib="0" flow="0.00" occupancy="0.00" speed="-1.00" harmonicMeanSpeed="-1.00" length="-1.00" nVehEntered="0"/>
    <interval begin="60.00" end="90.00" id="od1_2" nVehContrib="8" flow="960.00" occupancy="15.89" speed="11.12" harmonicMeanSpeed="11.12" length="6.63" nVehEntered="8"/>
    <interval begin="60.00" end="90.00" id="od2_0" nVehContrib="1" flow="120.00" occupancy="2.39" speed="11.18" harmonicMeanSpeed="11.18" length="8.00" nVehEntered="1"/>
    <interval begin="60.00" end="90.00" id="od2_1" nVehContrib="8" flow="960.00" occupancy="19.88" speed="10.66" harmonicMeanSpeed="10.42" length="7.75" nVehEntered="8"/>
    <interval begin="60.00" end="90.00" id="od2_2" nVehContrib="5" flow="600.00" occupancy="10.73" speed="11.18" harmonicMeanSpeed="11.18" length="7.20" nVehEntered="5"/>
    <interval begin="60.00" end="90.00" id="od3_0" nVehContrib="1" flow="120.00" occupancy="2.68" speed="11.18" harmonicMeanSpeed="11.18" length="9.00" nVehEntered="1"/>
    <interval begin="60.00" end="90.00" id="od3_1" nVehContrib="7" flow="840.00" occupancy="14.80" speed="11.18" harmonicMeanSpeed="11.18" length="7.29" nVehEntered="6"/>
    <interval begin="60.00" end="90.00" id="od3_2" nVehContrib="8" flow="960.00" occupancy="17.03" speed="11.16" harmonicMeanSpeed="11.16" length="7.13" nVehEntered="8"/>
    <interval begin="60.00" end="90.00" id="od4_0" nVehContrib="2" flow="240.00" occupancy="4.47" speed="11.18" harmonicMeanSpeed="11.18" length="7.50" nVehEntered="2"/>
    <interval begin="60.00" end="90.00" id="od4_1" nVehContrib="4" flow="480.00" occupancy="8.94" speed="11.18" harmonicMeanSpeed="11.18" length="7.50" nVehEntered="4"/>
    <interval begin="60.00" end="90.00" id="od4_2" nVehContrib="5" flow="600.00" occupancy="12.14" speed="11.18" harmonicMeanSpeed="11.18" length="7.20" nVehEntered="6"/>
    <interval begin="60.00" end="90.00" id="ood1_0" nVehContrib="6" flow="720.00" occupancy="12.22" speed="11.18" harmonicMeanSpeed="11.18" length="6.83" nVehEntered="6"/>
    <interval begin="60.00" end="90.00" id="ood1_1" nVehContrib="1" flow="120.00" occupancy="2.39" speed="11.18" harmonicMeanSpeed="11.18" length="8.00" nVehEntered="1"/>
    <interval begin="60.00" end="90.00" id="ood1_2" nVehContrib="7" flow="840.00" occupancy="15.50" speed="11.18" harmonicMeanSpeed="11.18" length="6.86" nVehEntered="8"/>
    <interval begin="60.00" end="90.00" id="ood2_0" nVehContrib="1" flow="120.00" occupancy="3.05" speed="11.18" harmonicMeanSpeed="11.18" length="8.00" nVehEntered="1"/>
    <interval begin="60.00" end="90.00" id="ood2_1" nVehContrib="8" flow="960.00" occupancy="18.49" speed="11.18" harmonicMeanSpeed="11.18" length="7.75" nVehEntered="8"/>
    <interval begin="60.00" end="90.00" id="ood2_2" nVehContrib="5" flow="600.00" occupancy="10.51" speed="11.18" harmonicMeanSpeed="11.18" length="7.00" nVehEntered="6"/>
    <interval begin="60.00" end="90.00" id="ood3_0" nVehContrib="1" flow="120.00" occupancy="2.68" speed="11.18" harmonicMeanSpeed="11.18" length="9.00" nVehEntered="1"/>
    <interval begin="60.00" end="90.00" id="ood3_1" nVehContrib="6" flow="720.00" occupancy="12.82" speed="11.18" harmonicMeanSpeed="11.18" length="7.17" nVehEntered="6"/>
    <interval begin="60.00" end="90.00" id="ood3_2" nVehContrib="9" flow="1080.00" occupancy="20.09" speed="11.18" harmonicMeanSpeed="11.18" length="7.22" nVehEntered="9"/>
    <interval begin="60.00" end="90.00" id="ood4_0" nVehContrib="2" flow="240.00" occupancy="4.47" speed="11.18" harmonicMeanSpeed="11.18" length="7.50" nVehEntered="2"/>
    <interval begin="60.00" end="90.00" id="ood4_1" nVehContrib="4" flow="480.00" occupancy="9.54" speed="11.18" harmonicMeanSpeed="11.18" length="8.00" nVehEntered="4"/>
    <interval begin="60.00" end="90.00" id="ood4_2" nVehContrib="5" flow="600.00" occupancy="11.63" speed="11.18" harmonicMeanSpeed="11.18" length="7.80" nVehEntered="5"/>
    <interval begin="60.00" end="90.00" id="oood1_0" nVehContrib="6" flow="720.00" occupancy="9.95" speed="11.15" harmonicMeanSpeed="11.15" length="6.83" nVehEntered="5"/>
    <interval begin="60.00" end="90.00" id="oood1_1" nVehContrib="1" flow="120.00" occupancy="3.45" speed="11.18" harmonicMeanSpeed="11.18" length="8.00" nVehEntered="2"/>
    <interval begin="60.00" end="90.00" id="oood1_2" nVehContrib="8" flow="960.00" occupancy="16.83" speed="11.10" harmonicMeanSpeed="11.10" length="7.00" nVehEntered="8"/>
    <interval begin="60.00" end="90.00" id="oood2_0" nVehContrib="1" flow="120.00" occupancy="1.79" speed="11.18" harmonicMeanSpeed="11.18" length="6.00" nVehEntered="1"/>
    <interval begin="60.00" end="90.00" id="oood2_1" nVehContrib="8" flow="960.00" occupancy="18.53" speed="11.15" harmonicMeanSpeed="11.15" length="7.75" nVehEntered="8"/>
    <interval begin="60.00" end="90.00" id="oood2_2" nVehContrib="6" flow="720.00" occupancy="11.97" speed="11.15" harmonicMeanSpeed="11.15" length="6.67" nVehEntered="6"/>
    <interval begin="60.00" end="90.00" id="oood3_0" nVehContrib="1" flow="120.00" occupancy="2.70" speed="11.13" harmonicMeanSpeed="11.13" length="9.00" nVehEntered="1"/>
    <interval begin="60.00" end="90.00" id="oood3_1" nVehContrib="6" flow="720.00" occupancy="12.87" speed="11.14" harmonicMeanSpeed="11.14" length="7.17" nVehEntered="6"/>
    <interval begin="60.00" end="90.00" id="oood3_2" nVehContrib="9" flow="1080.00" occupancy="21.49" speed="11.15" harmonicMeanSpeed="11.15" length="7.44" nVehEntered="10"/>
    <interval begin="60.00" end="90.00" id="oood4_0" nVehContrib="1" flow="120.00" occupancy="1.79" speed="11.16" harmonicMeanSpeed="11.16" length="6.00" nVehEntered="1"/>
    <interval begin="60.00" end="90.00" id="oood4_1" nVehContrib="5" flow="600.00" occupancy="11.95" speed="11.16" harmonicMeanSpeed="11.16" length="8.00" nVehEntered="5"/>
    <interval begin="60.00" end="90.00" id="oood4_2" nVehContrib="4" flow="480.00" occupancy="9.57" speed="11.14" harmonicMeanSpeed="11.14" length="8.00" nVehEntered="4"/>
    <interval begin="60.00" end="90.00" id="ooood1_0" nVehContrib="2" flow="240.00" occupancy="4.38" speed="9.18" harmonicMeanSpeed="9.12" length="6.00" nVehEntered="7"/>