<?xml version="1.0" encoding="UTF-8"?>

<!-- generated on 09/01/20 07:15:56 by Eclipse SUMO GUI Version 1.6.0
<configuration xmlns:xsi="http://www.w3.org/2001/XMLSchema-instance" xsi:noNamespaceSchemaLocation="http://sumo.dlr.de/xsd/sumoConfiguration.xsd">

    <input>
        <net-file value="data/lane3.net.xml"/>
        <route-files value="data/icacc+.rou.xml"/>
        <additional-files value="data/icacc+.det.xml"/>
    </input>

    <output>
        <tripinfo-output value="tripinfo.xml"/>
    </output>

    <time>
        <begin value="0"/>
        <step-length value="0.1"/>
    </time>

    <processing>
        <collision.mingap-factor value="0"/>
        <time-to-teleport value="-1"/>
        <lanechange.duration value="0.5"/>
    </processing>

    <report>
        <verbose value="true"/>
        <no-step-log value="true"/>
    </report>

    <traci_server>
        <remote-port value="6346"/>
    </traci_server>

    <gui_only>
        <start value="true"/>
        <tracker-interval value="0.1"/>
    </gui_only>

</configuration>
-->

<detector xmlns:xsi="http://www.w3.org/2001/XMLSchema-instance" xsi:noNamespaceSchemaLocation="http://sumo.dlr.de/xsd/det_e1_file.xsd">
    <interval begin="0.00" end="30.00" id="d1_0" nVehContrib="2" flow="240.00" occupancy="5.07" speed="11.18" harmonicMeanSpeed="11.18" length="8.50" nVehEntered="2"/>
    <interval begin="0.00" end="30.00" id="d1_1" nVehContrib="1" flow="120.00" occupancy="1.49" speed="11.18" harmonicMeanSpeed="11.18" length="5.00" nVehEntered="1"/>
    <interval begin="0.00" end="30.00" id="d1_2" nVehContrib="3" flow="360.00" occupancy="36.32" speed="11.18" harmonicMeanSpeed="11.18" length="8.67" nVehEntered="4"/>
    <interval begin="0.00" end="30.00" id="d2_0" nVehContrib="1" flow="120.00" occupancy="2.09" speed="11.18" harmonicMeanSpeed="11.18" length="7.00" nVehEntered="1"/>
    <interval begin="0.00" end="30.00" id="d2_1" nVehContrib="0" flow="0.00" occupancy="0.00" speed="-1.00" harmonicMeanSpeed="-1.00" length="-1.00" nVehEntered="0"/>
    <interval begin="0.00" end="30.00" id="d2_2" nVehContrib="2" flow="240.00" occupancy="4.17" speed="11.18" harmonicMeanSpeed="11.18" length="7.00" nVehEntered="2"/>
    <interval begin="0.00" end="30.00" id="d3_0" nVehContrib="2" flow="240.00" occupancy="4.17" speed="11.18" harmonicMeanSpeed="11.18" length="7.00" nVehEntered="2"/>
    <interval begin="0.00" end="30.00" id="d3_1" nVehContrib="0" flow="0.00" occupancy="0.00" speed="-1.00" harmonicMeanSpeed="-1.00" length="-1.00" nVehEntered="0"/>
    <interval begin="0.00" end="30.00" id="d3_2" nVehContrib="2" flow="240.00" occupancy="4.77" speed="11.18" harmonicMeanSpeed="11.18" length="8.00" nVehEntered="2"/>
    <interval begin="0.00" end="30.00" id="d4_0" nVehContrib="2" flow="240.00" occupancy="4.77" speed="11.18" harmonicMeanSpeed="11.18" length="8.00" nVehEntered="2"/>
    <interval begin="0.00" end="30.00" id="d4_1" nVehContrib="1" flow="120.00" occupancy="2.39" speed="11.18" harmonicMeanSpeed="11.18" length="8.00" nVehEntered="1"/>
    <interval begin="0.00" end="30.00" id="d4_2" nVehContrib="3" flow="360.00" occupancy="19.09" speed="11.06" harmonicMeanSpeed="11.06" length="8.67" nVehEntered="4"/>
    <interval begin="0.00" end="30.00" id="od1_0" nVehContrib="2" flow="240.00" occupancy="5.07" speed="11.18" harmonicMeanSpeed="11.18" length="8.50" nVehEntered="2"/>
    <interval begin="0.00" end="30.00" id="od1_1" nVehContrib="1" flow="120.00" occupancy="1.49" speed="11.18" harmonicMeanSpeed="11.18" length="5.00" nVehEntered="1"/>
    <interval begin="0.00" end="30.00" id="od1_2" nVehContrib="4" flow="480.00" occupancy="11.65" speed="11.14" harmonicMeanSpeed="11.14" length="8.50" nVehEntered="5"/>
    <interval begin="0.00" end="30.00" id="od2_0" nVehContrib="1" flow="120.00" occupancy="2.67" speed="11.18" harmonicMeanSpeed="11.18" length="7.00" nVehEntered="2"/>
    <interval begin="0.00" end="30.00" id="od2_1" nVehContrib="0" flow="0.00" occupancy="0.00" speed="-1.00" harmonicMeanSpeed="-1.00" length="-1.00" nVehEntered="0"/>
    <interval begin="0.00" end="30.00" id="od2_2" nVehContrib="2" flow="240.00" occupancy="4.17" speed="11.18" harmonicMeanSpeed="11.18" length="7.00" nVehEntered="2"/>
    <interval begin="0.00" end="30.00" id="od3_0" nVehContrib="3" flow="360.00" occupancy="5.66" speed="11.18" harmonicMeanSpeed="11.18" length="6.33" nVehEntered="3"/>
    <interval begin="0.00" end="30.00" id="od3_1" nVehContrib="0" flow="0.00" occupancy="0.00" speed="-1.00" harmonicMeanSpeed="-1.00" length="-1.00" nVehEntered="0"/>
    <interval begin="0.00" end="30.00" id="od3_2" nVehContrib="2" flow="240.00" occupancy="4.77" speed="11.18" harmonicMeanSpeed="11.18" length="8.00" nVehEntered="2"/>
    <interval begin="0.00" end="30.00" id="od4_0" nVehContrib="2" flow="240.00" occupancy="6.25" speed="11.18" harmonicMeanSpeed="11.18" length="8.00" nVehEntered="3"/>
    <interval begin="0.00" end="30.00" id="od4_1" nVehContrib="1" flow="120.00" occupancy="2.39" speed="11.18" harmonicMeanSpeed="11.18" length="8.00" nVehEntered="1"/>
    <interval begin="0.00" end="30.00" id="od4_2" nVehContrib="4" flow="480.00" occupancy="10.84" speed="10.82" harmonicMeanSpeed="10.78" length="8.75" nVehEntered="4"/>
    <interval begin="0.00" end="30.00" id="ood1_0" nVehContrib="2" flow="240.00" occupancy="5.07" speed="11.18" harmonicMeanSpeed="11.18" length="8.50" nVehEntered="2"/>
    <interval begin="0.00" end="30.00" id="ood1_1" nVehContrib="1" flow="120.00" occupancy="1.49" speed="11.18" harmonicMeanSpeed="11.18" length="5.00" nVehEntered="1"/>
    <interval begin="0.00" end="30.00" id="ood1_2" nVehContrib="5" flow="600.00" occupancy="12.52" speed="11.18" harmonicMeanSpeed="11.18" length="8.40" nVehEntered="5"/>
    <interval begin="0.00" end="30.00" id="ood2_0" nVehContrib="3" flow="360.00" occupancy="5.66" speed="11.18" harmonicMeanSpeed="11.18" length="6.33" nVehEntered="3"/>
    <interval begin="0.00" end="30.00" id="ood2_1" nVehContrib="0" flow="0.00" occupancy="0.00" speed="-1.00" harmonicMeanSpeed="-1.00" length="-1.00" nVehEntered="0"/>
    <interval begin="0.00" end="30.00" id="ood2_2" nVehContrib="2" flow="240.00" occupancy="4.17" speed="11.18" harmonicMeanSpeed="11.18" length="7.00" nVehEntered="2"/>
    <interval begin="0.00" end="30.00" id="ood3_0" nVehContrib="3" flow="360.00" occupancy="5.66" speed="11.18" harmonicMeanSpeed="11.18" length="6.33" nVehEntered="3"/>
    <interval begin="0.00" end="30.00" id="ood3_1" nVehContrib="0" flow="0.00" occupancy="0.00" speed="-1.00" harmonicMeanSpeed="-1.00" length="-1.00" nVehEntered="0"/>
    <interval begin="0.00" end="30.00" id="ood3_2" nVehContrib="3" flow="360.00" occupancy="7.16" speed="11.18" harmonicMeanSpeed="11.18" length="8.00" nVehEntered="3"/>
    <interval begin="0.00" end="30.00" id="ood4_0" nVehContrib="3" flow="360.00" occupancy="7.16" speed="11.18" harmonicMeanSpeed="11.18" length="8.00" nVehEntered="3"/>
    <interval begin="0.00" end="30.00" id="ood4_1" nVehContrib="1" flow="120.00" occupancy="2.39" speed="11.18" harmonicMeanSpeed="11.18" length="8.00" nVehEntered="1"/>
    <interval begin="0.00" end="30.00" id="ood4_2" nVehContrib="4" flow="480.00" occupancy="13.00" speed="11.18" harmonicMeanSpeed="11.18" length="8.75" nVehEntered="5"/>
    <interval begin="0.00" end="30.00" id="oood1_0" nVehContrib="2" flow="240.00" occupancy="5.07" speed="11.18" harmonicMeanSpeed="11.18" length="8.50" nVehEntered="2"/>
    <interval begin="0.00" end="30.00" id="oood1_1" nVehContrib="1" flow="120.00" occupancy="1.49" speed="11.18" harmonicMeanSpeed="11.18" length="5.00" nVehEntered="1"/>
    <interval begin="0.00" end="30.00" id="oood1_2" nVehContrib="6" flow="720.00" occupancy="14.98" speed="11.13" harmonicMeanSpeed="11.13" length="8.33" nVehEntered="6"/>
    <interval begin="0.00" end="30.00" id="oood2_0" nVehContrib="4" flow="480.00" occupancy="8.35" speed="11.18" harmonicMeanSpeed="11.18" length="7.00" nVehEntered="4"/>
    <interval begin="0.00" end="30.00" id="oood2_1" nVehContrib="0" flow="0.00" occupancy="0.00" speed="-1.00" harmonicMeanSpeed="-1.00" length="-1.00" nVehEntered="0"/>
    <interval begin="0.00" end="30.00" id="oood2_2" nVehContrib="2" flow="240.00" occupancy="4.17" speed="11.18" harmonicMeanSpeed="11.18" length="7.00" nVehEntered="2"/>
    <interval begin="0.00" end="30.00" id="oood3_0" nVehContrib="3" flow="360.00" occupancy="5.66" speed="11.18" harmonicMeanSpeed="11.18" length="6.33" nVehEntered="3"/>
    <interval begin="0.00" end="30.00" id="oood3_1" nVehContrib="0" flow="0.00" occupancy="0.00" speed="-1.00" harmonicMeanSpeed="-1.00" length="-1.00" nVehEntered="0"/>
    <interval begin="0.00" end="30.00" id="oood3_2" nVehContrib="4" flow="480.00" occupancy="8.65" speed="11.18" harmonicMeanSpeed="11.18" length="7.25" nVehEntered="4"/>
    <interval begin="0.00" end="30.00" id="oood4_0" nVehContrib="3" flow="360.00" occupancy="7.16" speed="11.18" harmonicMeanSpeed="11.18" length="8.00" nVehEntered="3"/>
    <interval begin="0.00" end="30.00" id="oood4_1" nVehContrib="1" flow="120.00" occupancy="2.39" speed="11.18" harmonicMeanSpeed="11.18" length="8.00" nVehEntered="1"/>
    <interval begin="0.00" end="30.00" id="oood4_2" nVehContrib="5" flow="600.00" occupancy="13.12" speed="11.18" harmonicMeanSpeed="11.18" length="8.80" nVehEntered="5"/>
    <interval begin="0.00" end="30.00" id="ooood1_0" nVehContrib="6" flow="720.00" occupancy="3.61" speed="48.01" harmonicMeanSpeed="47.87" length="8.67" nVehEntered="6"/>
    <interval begin="0.00" end="30.00" id="ooood1_1" nVehContrib="2" flow="240.00" occupancy="1.20" speed="30.47" harmonicMeanSpeed="30.22" length="5.50" nVehEntered="2"/>
    <interval begin="0.00" end="30.00" id="ooood1_2" nVehContrib="5" flow="600.00" occupancy="3.01" speed="44.32" harmonicMeanSpeed="44.04" length="8.00" nVehEntered="5"/>
    <interval begin="0.00" end="30.00" id="ooood2_0" nVehContrib="4" flow="480.00" occupancy="2.41" speed="37.40" harmonicMeanSpeed="36.29" length="6.75" nVehEntered="4"/>
    <interval begin="0.00" end="30.00" id="ooood2_1" nVehContrib="3" flow="360.00" occupancy="1.81" speed="42.47" harmonicMeanSpeed="41.88" length="7.67" nVehEntered="3"/>
    <interval begin="0.00" end="30.00" id="ooood2_2" nVehContrib="1" flow="120.00" occupancy="0.60" speed="49.86" harmonicMeanSpeed="49.86" length="9.00" nVehEntered="1"/>
    <interval begin="0.00" end="30.00" id="ooood3_0" nVehContrib="4" flow="480.00" occupancy="2.41" speed="33.24" harmonicMeanSpeed="32.04" length="6.00" nVehEntered="4"/>
    <interval begin="0.00" end="30.00" id="ooood3_1" nVehContrib="4" flow="480.00" occupancy="2.41" speed="41.55" harmonicMeanSpeed="40.61" length="7.50" nVehEntered="4"/>
    <interval begin="0.00" end="30.00" id="ooood3_2" nVehContrib="2" flow="240.00" occupancy="1.20" speed="41.55" harmonicMeanSpeed="41.37" length="7.50" nVehEntered="2"/>
    <interval begin="0.00" end="30.00" id="ooood4_0" nVehContrib="3" flow="360.00" occupancy="1.81" speed="46.17" harmonicMeanSpeed="46.03" length="8.33" nVehEntered="3"/>
    <interval begin="0.00" end="30.00" id="ooood4_1" nVehContrib="4" flow="480.00" occupancy="2.41" speed="45.71" harmonicMeanSpeed="45.22" length="8.25" nVehEntered="4"/>
    <interval begin="0.00" end="30.00" id="ooood4_2" nVehContrib="3" flow="360.00" occupancy="1.81" speed="49.86" harmonicMeanSpeed="49.86" length="9.00" nVehEntered="3"/>
    <interval begin="30.00" end="60.00" id="d1_0" nVehContrib="2" flow="240.00" occupancy="11.69" speed="6.51" harmonicMeanSpeed="4.34" length="7.00" nVehEntered="3"/>
    <interval begin="30.00" end="60.00" id="d1_1" nVehContrib="1" flow="120.00" occupancy="1.79" speed="11.18" harmonicMeanSpeed="11.18" length="6.00" nVehEntered="1"/>
    <interval begin="30.00" end="60.00" id="d1_2" nVehContrib="0" flow="0.00" occupancy="100.00" speed="-1.00" harmonicMeanSpeed="-1.00" length="-1.00" nVehEntered="0"/>
    <interval begin="30.00" end="60.00" id="d2_0" nVehContrib="3" flow="360.00" occupancy="70.44" speed="6.70" harmonicMeanSpeed="1.95" length="7.00" nVehEntered="4"/>
    <interval begin="30.00" end="60.00" id="d2_1" nVehContrib="0" flow="0.00" occupancy="0.00" speed="-1.00" harmonicMeanSpeed="-1.00" length="-1.00" nVehEntered="0"/>
    <interval begin="30.00" end="60.00" id="d2_2" nVehContrib="2" flow="240.00" occupancy="21.90" speed="7.99" harmonicMeanSpeed="6.84" length="7.50" nVehEntered="3"/>
    <interval begin="30.00" end="60.00" id="d3_0" nVehContrib="2" flow="240.00" occupancy="54.93" speed="6.76" harmonicMeanSpeed="4.29" length="6.50" nVehEntered="3"/>
    <interval begin="30.00" end="60.00" id="d3_1" nVehContrib="1" flow="120.00" occupancy="1.79" speed="11.18" harmonicMeanSpeed="11.18" length="6.00" nVehEntered="1"/>
    <interval begin="30.00" end="60.00" id="d3_2" nVehContrib="2" flow="240.00" occupancy="78.26" speed="10.46" harmonicMeanSpeed="10.40" length="6.50" nVehEntered="3"/>
    <interval begin="30.00" end="60.00" id="d4_0" nVehContrib="2" flow="240.00" occupancy="6.53" speed="9.21" harmonicMeanSpeed="8.78" length="8.50" nVehEntered="2"/>
    <interval begin="30.00" end="60.00" id="d4_1" nVehContrib="0" flow="0.00" occupancy="0.00" speed="-1.00" harmonicMeanSpeed="-1.00" length="-1.00" nVehEntered="0"/>
    <interval begin="30.00" end="60.00" id="d4_2" nVehContrib="0" flow="0.00" occupancy="100.00" speed="-1.00" harmonicMeanSpeed="-1.00" length="-1.00" nVehEntered="0"/>
    <interval begin="30.00" end="60.00" id="od1_0" nVehContrib="3" flow="360.00" occupancy="6.85" speed="11.18" harmonicMeanSpeed="11.18" length="6.67" nVehEntered="4"/>
    <interval begin="30.00" end="60.00" id="od1_1" nVehContrib="1" flow="120.00" occupancy="1.79" speed="11.18" harmonicMeanSpeed="11.18" length="6.00" nVehEntered="1"/>
    <interval begin="30.00" end="60.00" id="od1_2" nVehContrib="2" flow="240.00" occupancy="76.86" speed="10.27" harmonicMeanSpeed="10.19" length="8.00" nVehEntered="2"/>
    <interval begin="30.00" end="60.00" id="od2_0" nVehContrib="5" flow="600.00" occupancy="61.60" speed="8.98" harmonicMeanSpeed="5.35" length="7.60" nVehEntered="5"/>
    <interval begin="30.00" end="60.00" id="od2_1" nVehContrib="0" flow="0.00" occupancy="0.00" speed="-1.00" harmonicMeanSpeed="-1.00" length="-1.00" nVehEntered="0"/>
    <interval begin="30.00" end="60.00" id="od2_2" nVehContrib="3" flow="360.00" occupancy="6.55" speed="11.18" harmonicMeanSpeed="11.18" length="6.67" nVehEntered="4"/>
    <interval begin="30.00" end="60.00" id="od3_0" nVehContrib="4" flow="480.00" occupancy="7.33" speed="10.88" harmonicMeanSpeed="10.86" length="6.00" nVehEntered="4"/>
    <interval begin="30.00" end="60.00" id="od3_1" nVehContrib="1" flow="120.00" occupancy="1.79" speed="11.18" harmonicMeanSpeed="11.18" length="6.00" nVehEntered="1"/>
    <interval begin="30.00" end="60.00" id="od3_2" nVehContrib="5" flow="600.00" occupancy="9.69" speed="10.73" harmonicMeanSpeed="10.65" length="6.20" nVehEntered="5"/>
    <interval begin="30.00" end="60.00" id="od4_0" nVehContrib="3" flow="360.00" occupancy="5.38" speed="11.18" harmonicMeanSpeed="11.18" length="7.67" nVehEntered="2"/>
    <interval begin="30.00" end="60.00" id="od4_1" nVehContrib="0" flow="0.00" occupancy="0.00" speed="-1.00" harmonicMeanSpeed="-1.00" length="-1.00" nVehEntered="0"/>
    <interval begin="30.00" end="60.00" id="od4_2" nVehContrib="2" flow="240.00" occupancy="6.21" speed="9.37" harmonicMeanSpeed="9.02" length="8.50" nVehEntered="2"/>
    <interval begin="30.00" end="60.00" id="ood1_0" nVehContrib="4" flow="480.00" occupancy="7.75" speed="11.18" harmonicMeanSpeed="11.18" length="6.50" nVehEntered="4"/>
    <interval begin="30.00" end="60.00" id="ood1_1" nVehContrib="1" flow="120.00" occupancy="1.79" speed="11.18" harmonicMeanSpeed="11.18" length="6.00" nVehEntered="1"/>
    <interval begin="30.00" end="60.00" id="ood1_2" nVehContrib="3" flow="360.00" occupancy="49.51" speed="10.89" harmonicMeanSpeed="10.87" length="8.00" nVehEntered="4"/>
    <interval begin="30.00" end="60.00" id="ood2_0" nVehContrib="6" flow="720.00" occupancy="15.65" speed="10.29" harmonicMeanSpeed="9.99" length="7.83" nVehEntered="6"/>
    <interval begin="30.00" end="60.00" id="ood2_1" nVehContrib="0" flow="0.00" occupancy="0.00" speed="-1.00" harmonicMeanSpeed="-1.00" length="-1.00" nVehEntered="0"/>
    <interval begin="30.00" end="60.00" id="ood2_2" nVehContrib="4" flow="480.00" occupancy="7.45" speed="11.18" harmonicMeanSpeed="11.18" length="6.25" nVehEntered="4"/>
    <interval begin="30.00" end="60.00" id="ood3_0" nVehContrib="4" flow="480.00" occupancy="7.16" speed="11.18" harmonicMeanSpeed="11.18" length="6.00" nVehEntered="4"/>
    <interval begin="30.00" end="60.00" id="ood3_1" nVehContrib="1" flow="120.00" occupancy="1.79" speed="11.18" harmonicMeanSpeed="11.18" length="6.00" nVehEntered="1"/>
    <interval begin="30.00" end="60.00" id="ood3_2" nVehContrib="5" flow="600.00" occupancy="9.38" speed="11.18" harmonicMeanSpeed="11.18" length="5.80" nVehEntered="6"/>
    <interval begin="30.00" end="60.00" id="ood4_0" nVehContrib="3" flow="360.00" occupancy="5.96" speed="11.18" harmonicMeanSpeed="11.18" length="6.67" nVehEntered="3"/>
    <interval begin="30.00" end="60.00" id="ood4_1" nVehContrib="0" flow="0.00" occupancy="0.00" speed="-1.00" harmonicMeanSpeed="-1.00" length="-1.00" nVehEntered="0"/>
    <interval begin="30.00" end="60.00" id="ood4_2" nVehContrib="4" flow="480.00" occupancy="38.11" speed="10.88" harmonicMeanSpeed="10.85" length="8.00" nVehEntered="4"/>
    <interval begin="30.00" end="60.00" id="oood1_0" nVehContrib="4" flow="480.00" occupancy="7.75" speed="11.18" harmonicMeanSpeed="11.18" length="6.50" nVehEntered="4"/>
    <interval begin="30.00" end="60.00" id="oood1_1" nVehContrib="1" flow="120.00" occupancy="1.79" speed="11.18" harmonicMeanSpeed="11.18" length="6.00" nVehEntered="1"/>
    <interval begin="30.00" end="60.00" id="oood1_2" nVehContrib="4" flow="480.00" occupancy="10.43" speed="10.90" harmonicMeanSpeed="10.88" length="8.50" nVehEntered="4"/>
    <interval begin="30.00" end="60.00" id="oood2_0" nVehContrib="6" flow="720.00" occupancy="12.83" speed="11.17" harmonicMeanSpeed="11.17" length="7.17" nVehEntered="6"/>
    <interval begin="30.00" end="60.00" id="oood2_1" nVehContrib="0" flow="0.00" occupancy="0.00" speed="-1.00" harmonicMeanSpeed="-1.00" length="-1.00" nVehEntered="0"/>
    <interval begin="30.00" end="60.00" id="oood2_2" nVehContrib="4" flow="480.00" occupancy="7.45" speed="11.18" harmonicMeanSpeed="11.18" length="6.25" nVehEntered="4"/>
    <interval begin="30.00" end="60.00" id="oood3_0" nVehContrib="4" flow="480.00" occupancy="7.16" speed="11.18" harmonicMeanSpeed="11.18" length="6.00" nVehEntered="4"/>
    <interval begin="30.00" end="60.00" id="oood3_1" nVehContrib="1" flow="120.00" occupancy="1.79" speed="11.18" harmonicMeanSpeed="11.18" length="6.00" nVehEntered="1"/>
    <interval begin="30.00" end="60.00" id="oood3_2" nVehContrib="5" flow="600.00" occupancy="9.81" speed="10.93" harmonicMeanSpeed="10.90" length="6.40" nVehEntered="5"/>
    <interval begin="30.00" end="60.00" id="oood4_0" nVehContrib="3" flow="360.00" occupancy="5.96" speed="11.18" harmonicMeanSpeed="11.18" length="6.67" nVehEntered="3"/>
    <interval begin="30.00" end="60.00" id="oood4_1" nVehContrib="1" flow="120.00" occupancy="2.68" speed="11.18" harmonicMeanSpeed="11.18" length="9.00" nVehEntered="1"/>
    <interval begin="30.00" end="60.00" id="oood4_2" nVehContrib="5" flow="600.00" occupancy="41.11" speed="10.62" harmonicMeanSpeed="10.50" length="7.20" nVehEntered="6"/>
    <interval begin="30.00" end="60.00" id="ooood1_0" nVehContrib="6" flow="720.00" occupancy="3.61" speed="41.55" harmonicMeanSpeed="40.37" length="7.50" nVehEntered="6"/>
    <interval begin="30.00" end="60.00" id="ooood1_1" nVehContrib="1" flow="120.00" occupancy="0.60" speed="49.86" harmonicMeanSpeed="49.86" length="9.00" nVehEntered="1"/>
    <interval begin="30.00" end="60.00" id="ooood1_2" nVehContrib="2" flow="240.00" occupancy="1.20" speed="38.78" harmonicMeanSpeed="35.62" length="7.00" nVehEntered="2"/>
    <interval begin="30.00" end="60.00" id="ooood2_0" nVehContrib="3" flow="360.00" occupancy="1.81" speed="38.78" harmonicMeanSpeed="38.25" length="7.00" nVehEntered="3"/>
    <interval begin="30.00" end="60.00" id="ooood2_1" nVehContrib="2" flow="240.00" occupancy="1.20" speed="27.70" harmonicMeanSpeed="27.70" length="5.00" nVehEntered="2"/>
    <interval begin="30.00" end="60.00" id="ooood2_2" nVehContrib="4" flow="480.00" occupancy="2.41" speed="34.63" harmonicMeanSpeed="32.70" length="6.25" nVehEntered="4"/>
    <interval begin="30.00" end="60.00" id="ooood3_0" nVehContrib="0" flow="0.00" occupancy="0.00" speed="-1.00" harmonicMeanSpeed="-1.00" length="-1.00" nVehEntered="0"/>
    <interval begin="30.00" end="60.00" id="ooood3_1" nVehContrib="5" flow="600.00" occupancy="3.01" speed="33.24" harmonicMeanSpeed="32.27" length="6.00" nVehEntered="5"/>
    <interval begin="30.00" end="60.00" id="ooood3_2" nVehContrib="2" flow="240.00" occupancy="1.20" speed="30.47" harmonicMeanSpeed="30.22" length="5.50" nVehEntered="2"/>
    <interval begin="30.00" end="60.00" id="ooood4_0" nVehContrib="4" flow="480.00" occupancy="2.41" speed="41.55" harmonicMeanSpeed="39.89" length="7.50" nVehEntered="4"/>
    <interval begin="30.00" end="60.00" id="ooood4_1" nVehContrib="1" flow="120.00" occupancy="0.60" speed="27.70" harmonicMeanSpeed="27.70" length="5.00" nVehEntered="1"/>
    <interval begin="30.00" end="60.00" id="ooood4_2" nVehContrib="5" flow="600.00" occupancy="3.01" speed="38.78" harmonicMeanSpeed="37.15" length="7.00" nVehEntered="5"/>
    <interval begin="60.00" end="90.00" id="d1_0" nVehContrib="3" flow="360.00" occupancy="15.28" speed="7.93" harmonicMeanSpeed="3.51" length="7.00" nVehEntered="2"/>
    <interval begin="60.00" end="90.00" id="d1_1" nVehContrib="1" flow="120.00" occupancy="1.49" speed="11.18" harmonicMeanSpeed="11.18" length="5.00" nVehEntered="1"/>
    <interval begin="60.00" end="90.00" id="d1_2" nVehContrib="8" flow="960.00" occupancy="60.25" speed="7.28" harmonicMeanSpeed="1.29" length="8.38" nVehEntered="8"/>
    <interval begin="60.00" end="90.00" id="d2_0" nVehContrib="8" flow="960.00" occupancy="24.60" speed="8.26" harmonicMeanSpeed="4.20" length="6.88" nVehEntered="7"/>
    <interval begin="60.00" end="90.00" id="d2_1" nVehContrib="0" flow="0.00" occupancy="0.00" speed="-1.00" harmonicMeanSpeed="-1.00" length="-1.00" nVehEntered="0"/>
    <interval begin="60.00" end="90.00" id="d2_2" nVehContrib="3" flow="360.00" occupancy="20.10" speed="7.07" harmonicMeanSpeed="1.47" length="6.33" nVehEntered="2"/>
    <interval begin="60.00" end="90.00" id="d3_0" nVehContrib="5" flow="600.00" occupancy="9.19" speed="8.87" harmonicMeanSpeed="1.88" length="5.60" nVehEntered="4"/>
    <interval begin="60.00" end="90.00" id="d3_1" nVehContrib="0" flow="0.00" occupancy="0.00" speed="-1.00" harmonicMeanSpeed="-1.00" length="-1.00" nVehEntered="0"/>
    <interval begin="60.00" end="90.00" id="d3_2" nVehContrib="6" flow="720.00" occupancy="57.82" speed="6.35" harmonicMeanSpeed="0.93" length="6.17" nVehEntered="5"/>
    <interval begin="60.00" end="90.00" id="d4_0" nVehContrib="7" flow="840.00" occupancy="15.53" speed="10.75" harmonicMeanSpeed="10.70" length="7.00" nVehEntered="8"/>
    <interval begin="60.00" end="90.00" id="d4_1" nVehContrib="1" flow="120.00" occupancy="2.68" speed="11.18" harmonicMeanSpeed="11.18" length="9.00" nVehEntered="1"/>
    <interval begin="60.00" end="90.00" id="d4_2" nVehContrib="8" flow="960.00" occupancy="81.22" speed="6.63" harmonicMeanSpeed="1.16" length="7.88" nVehEntered="8"/>
    <interval begin="60.00" end="90.00" id="od1_0" nVehContrib="2" flow="240.00" occupancy="3.59" speed="11.18" harmonicMeanSpeed="11.18" length="7.50" nVehEntered="1"/>
    <interval begin="60.00" end="90.00" id="od1_1" nVehContrib="1" flow="120.00" occupancy="1.49" speed="11.18" harmonicMeanSpeed="11.18" length="5.00" nVehEntered="1"/>
    <interval begin="60.00" end="90.00" id="od1_2" nVehContrib="8" flow="960.00" occupancy="46.05" speed="6.65" harmonicMeanSpeed="1.98" length="8.38" nVehEntered="7"/>
    <interval begin="60.00" end="90.00" id="od2_0" nVehContrib="6" flow="720.00" occupancy="17.55" speed="7.65" harmonicMeanSpeed="2.22" length="6.33" nVehEntered="5"/>
    <interval begin="60.00" end="90.00" id="od2_1" nVehContrib="0" flow="0.00" occupancy="0.00" speed="-1.00" harmonicMeanSpeed="-1.00" length="-1.00" nVehEntered="0"/>
    <interval begin="60.00" end="90.00" id="od2_2" nVehContrib="2" flow="240.00" occupancy="3.59" speed="11.18" harmonicMeanSpeed="11.18" length="7.00" nVehEntered="1"/>
    <interval begin="60.00" end="90.00" id="od3_0" nVehContrib="2" flow="240.00" occupancy="3.58" speed="11.18" harmonicMeanSpeed="11.18" length="6.00" nVehEntered="2"/>
    <interval begin="60.00" end="90.00" id="od3_1" nVehContrib="0" flow="0.00" occupancy="0.00" speed="-1.00" harmonicMeanSpeed="-1.00" length="-1.00" nVehEntered="0"/>
    <interval begin="60.00" end="90.00" id="od3_2" nVehContrib="5" flow="600.00" occupancy="75.75" speed="7.39" harmonicMeanSpeed="2.36" length="7.00" nVehEntered="6"/>
    <interval begin="60.00" end="90.00" id="od4_0" nVehContrib="7" flow="840.00" occupancy="14.91" speed="11.18" harmonicMeanSpeed="11.18" length="7.14" nVehEntered="7"/>
    <interval begin="60.00" end="90.00" id="od4_1" nVehContrib="1" flow="120.00" occupancy="3.57" speed="11.18" harmonicMeanSpeed="11.18" length="9.00" nVehEntered="2"/>
    <interval begin="60.00" end="90.00" id="od4_2" nVehContrib="7" flow="840.00" occupancy="54.10" speed="7.76" harmonicMeanSpeed="3.22" length="7.43" nVehEntered="7"/>
    <interval begin="60.00" end="90.00" id="ood1_0" nVehContrib="1" flow="120.00" occupancy="2.68" speed="11.18" harmonicMeanSpeed="11.18" length="9.00" nVehEntered="1"/>
    <interval begin="60.00" end="90.00" id="ood1_1" nVehContrib="1" flow="120.00" occupancy="1.49" speed="11.18" harmonicMeanSpeed="11.18" length="5.00" nVehEntered="1"/>
    <interval begin="60.00" end="90.00" id="ood1_2" nVehContrib="8" flow="960.00" occupancy="70.61" speed="4.98" harmonicMeanSpeed="2.02" length="7.88" nVehEntered="7"/>
    <interval begin="60.00" end="90.00" id="ood2_0" nVehContrib="3" flow="360.00" occupancy="6.18" speed="9.59" harmonicMeanSpeed="8.95" length="5.67" nVehEntered="3"/>
    <interval begin="60.00" end="90.00" id="ood2_1" nVehContrib="0" flow="0.00" occupancy="0.00" speed="-1.00" harmonicMeanSpeed="-1.00" length="-1.00" nVehEntered="0"/>
    <interval begin="60.00" end="90.00" id="ood2_2" nVehContrib="1" flow="120.00" occupancy="2.68" speed="11.18" harmonicMeanSpeed="11.18" length="9.00" nVehEntered="1"/>
    <interval begin="60.00" end="90.00" id="ood3_0" nVehContrib="2" flow="240.00" occupancy="3.58" speed="11.18" harmonicMeanSpeed="11.18" length="6.00" nVehEntered="2"/>
    <interval begin="60.00" end="90.00" id="ood3_1" nVehContrib="0" flow="0.00" occupancy="0.00" speed="-1.00" harmonicMeanSpeed="-1.00" length="-1.00" nVehEntered="0"/>
    <interval begin="60.00" end="90.00" id="ood3_2" nVehContrib="7" flow="840.00" occupancy="15.34" speed="10.50" harmonicMeanSpeed="10.16" length="7.00" nVehEntered="6"/>
    <interval begin="60.00" end="90.00" id="ood4_0" nVehContrib="6" flow="720.00" occupancy="13.42" speed="11.18" harmonicMeanSpeed="11.18" length="7.50" nVehEntered="6"/>
    <interval begin="60.00" end="90.00" id="ood4_1" nVehContrib="2" flow="240.00" occupancy="4.47" speed="11.18" harmonicMeanSpeed="11.18" length="7.50" nVehEntered="2"/>
    <interval begin="60.00" end="90.00" id="ood4_2" nVehContrib="5" flow="600.00" occupancy="47.00" speed="6.76" harmonicMeanSpeed="1.45" length="7.40" nVehEntered="4"/>
    <interval begin="60.00" end="90.00" id="oood1_0" nVehContrib="1" flow="120.00" occupancy="2.68" speed="11.18" harmonicMeanSpeed="11.18" length="9.00" nVehEntered="1"/>
    <interval begin="60.00" end="90.00" id="oood1_1" nVehContrib="1" flow="120.00" occupancy="1.49" speed="11.18" harmonicMeanSpeed="11.18" length="5.00" nVehEntered="1"/>
    <interval begin="60.00" end="90.00" id="oood1_2" nVehContrib="6" flow="720.00" occupancy="34.46" speed="6.33" harmonicMeanSpeed="4.24" length="7.50" nVehEntered="6"/>
    <interval begin="60.00" end="90.00" id="oood2_0" nVehContrib="2" flow="240.00" occupancy="3.58" speed="11.16" harmonicMeanSpeed="11.16" length="6.00" nVehEntered="2"/>
    <interval begin="60.00" end="90.00" id="oood2_1" nVehContrib="1" flow="120.00" occupancy="2.09" speed="11.18" harmonicMeanSpeed="11.18" length="7.00" nVehEntered="1"/>
    <interval begin="60.00" end="90.00" id="oood2_2" nVehContrib="1" flow="120.00" occupancy="2.68" speed="11.18" harmonicMeanSpeed="11.18" length="9.00" nVehEntered="1"/>
    <interval begin="60.00" end="90.00" id="oood3_0" nVehContrib="2" flow="240.00" occupancy="3.58" speed="11.17" harmonicMeanSpeed="11.17" length="6.00" nVehEntered="2"/>
    <interval begin="60.00" end="90.00" id="oood3_1" nVehContrib="0" flow="0.00" occupancy="0.00" speed="-1.00" harmonicMeanSpeed="-1.00" length="-1.00" nVehEntered="0"/>
    <interval begin="60.00" end="90.00" id="oood3_2" nVehContrib="6" flow="720.00" occupancy="12.23" speed="11.17" harmonicMeanSpeed="11.17" length="6.83" nVehEntered="6"/>
    <interval begin="60.00" end="90.00" id="oood4_0" nVehContrib="6" flow="720.00" occupancy="13.42" speed="11.18" harmonicMeanSpeed="11.18" length="7.50" nVehEntered="6"/>
    <interval begin="60.00" end="90.00" id="oood4_1" nVehContrib="1" flow="120.00" occupancy="1.79" speed="11.18" harmonicMeanSpeed="11.18" length="6.00" nVehEntered="1"/>
    <interval begin="60.00" end="90.00" id="oood4_2" nVehContrib="4" flow="480.00" occupancy="25.03" speed="7.53" harmonicMeanSpeed="2.12" length="7.75" nVehEntered="3"/>
    <interval begin="60.00" end="90.00" id="ooood1_0" nVehContrib="3" flow="360.00" occupancy="1.81" speed="31.39" harmonicMeanSpeed="31.16" length="5.67" nVehEntered="3"/>