<?xml version="1.0" encoding="UTF-8"?>

<!-- generated on Fri 21 Feb 2020 07:57:00 PM EST by Eclipse SUMO GUI Version 1.2.0
<configuration xmlns:xsi="http://www.w3.org/2001/XMLSchema-instance" xsi:noNamespaceSchemaLocation="http://sumo.dlr.de/xsd/sumoConfiguration.xsd">

    <input>
        <net-file value="data/lane3.net.xml"/>
        <route-files value="data/icacc+.rou.xml"/>
        <additional-files value="data/icacc+.det.xml"/>
    </input>

    <output>
        <tripinfo-output value="tripinfo.xml"/>
    </output>

    <time>
        <begin value="0"/>
        <step-length value="0.1"/>
    </time>

    <processing>
        <collision.mingap-factor value="0"/>
    </processing>

    <report>
        <verbose value="true"/>
        <no-step-log value="true"/>
    </report>

    <traci_server>
        <remote-port value="58037"/>
    </traci_server>

    <gui_only>
        <quit-on-end value="true"/>
        <start value="true"/>
        <tracker-interval value="0.1"/>
    </gui_only>

</configuration>
-->

<detector xmlns:xsi="http://www.w3.org/2001/XMLSchema-instance" xsi:noNamespaceSchemaLocation="http://sumo.dlr.de/xsd/det_e1_file.xsd">
    <interval begin="0.00" end="30.00" id="d1_0" nVehContrib="3" flow="360.00" occupancy="5.96" speed="11.18" harmonicMeanSpeed="11.18" length="6.67" nVehEntered="3"/>
    <interval begin="0.00" end="30.00" id="d1_1" nVehContrib="0" flow="0.00" occupancy="0.00" speed="-1.00" harmonicMeanSpeed="-1.00" length="-1.00" nVehEntered="0"/>
    <interval begin="0.00" end="30.00" id="d1_2" nVehContrib="4" flow="480.00" occupancy="8.05" speed="11.18" harmonicMeanSpeed="11.18" length="6.75" nVehEntered="4"/>
    <interval begin="0.00" end="30.00" id="d2_0" nVehContrib="3" flow="360.00" occupancy="5.37" speed="11.18" harmonicMeanSpeed="11.18" length="6.00" nVehEntered="3"/>
    <interval begin="0.00" end="30.00" id="d2_1" nVehContrib="1" flow="120.00" occupancy="2.68" speed="11.18" harmonicMeanSpeed="11.18" length="9.00" nVehEntered="1"/>
    <interval begin="0.00" end="30.00" id="d2_2" nVehContrib="1" flow="120.00" occupancy="1.49" speed="11.18" harmonicMeanSpeed="11.18" length="5.00" nVehEntered="1"/>
    <interval begin="0.00" end="30.00" id="d3_0" nVehContrib="2" flow="240.00" occupancy="4.17" speed="11.18" harmonicMeanSpeed="11.18" length="7.00" nVehEntered="2"/>
    <interval begin="0.00" end="30.00" id="d3_1" nVehContrib="0" flow="0.00" occupancy="0.00" speed="-1.00" harmonicMeanSpeed="-1.00" length="-1.00" nVehEntered="0"/>
    <interval begin="0.00" end="30.00" id="d3_2" nVehContrib="1" flow="120.00" occupancy="2.68" speed="11.18" harmonicMeanSpeed="11.18" length="9.00" nVehEntered="1"/>
    <interval begin="0.00" end="30.00" id="d4_0" nVehContrib="1" flow="120.00" occupancy="1.79" speed="11.18" harmonicMeanSpeed="11.18" length="6.00" nVehEntered="1"/>
    <interval begin="0.00" end="30.00" id="d4_1" nVehContrib="1" flow="120.00" occupancy="1.49" speed="11.18" harmonicMeanSpeed="11.18" length="5.00" nVehEntered="1"/>
    <interval begin="0.00" end="30.00" id="d4_2" nVehContrib="4" flow="480.00" occupancy="7.75" speed="11.18" harmonicMeanSpeed="11.18" length="6.50" nVehEntered="4"/>
    <interval begin="0.00" end="30.00" id="od1_0" nVehContrib="3" flow="360.00" occupancy="5.96" speed="11.18" harmonicMeanSpeed="11.18" length="6.67" nVehEntered="3"/>
    <interval begin="0.00" end="30.00" id="od1_1" nVehContrib="0" flow="0.00" occupancy="0.00" speed="-1.00" harmonicMeanSpeed="-1.00" length="-1.00" nVehEntered="0"/>
    <interval begin="0.00" end="30.00" id="od1_2" nVehContrib="4" flow="480.00" occupancy="8.05" speed="11.18" harmonicMeanSpeed="11.18" length="6.75" nVehEntered="4"/>
    <interval begin="0.00" end="30.00" id="od2_0" nVehContrib="3" flow="360.00" occupancy="5.37" speed="11.18" harmonicMeanSpeed="11.18" length="6.00" nVehEntered="3"/>
    <interval begin="0.00" end="30.00" id="od2_1" nVehContrib="2" flow="240.00" occupancy="4.77" speed="11.18" harmonicMeanSpeed="11.18" length="8.00" nVehEntered="2"/>
    <interval begin="0.00" end="30.00" id="od2_2" nVehContrib="2" flow="240.00" occupancy="2.98" speed="11.18" harmonicMeanSpeed="11.18" length="5.00" nVehEntered="2"/>
    <interval begin="0.00" end="30.00" id="od3_0" nVehContrib="2" flow="240.00" occupancy="4.17" speed="11.18" harmonicMeanSpeed="11.18" length="7.00" nVehEntered="2"/>
    <interval begin="0.00" end="30.00" id="od3_1" nVehContrib="0" flow="0.00" occupancy="0.54" speed="-1.00" harmonicMeanSpeed="-1.00" length="-1.00" nVehEntered="1"/>
    <interval begin="0.00" end="30.00" id="od3_2" nVehContrib="1" flow="120.00" occupancy="3.09" speed="11.18" harmonicMeanSpeed="11.18" length="9.00" nVehEntered="2"/>
    <interval begin="0.00" end="30.00" id="od4_0" nVehContrib="1" flow="120.00" occupancy="1.79" speed="11.18" harmonicMeanSpeed="11.18" length="6.00" nVehEntered="1"/>
    <interval begin="0.00" end="30.00" id="od4_1" nVehContrib="1" flow="120.00" occupancy="1.49" speed="11.18" harmonicMeanSpeed="11.18" length="5.00" nVehEntered="1"/>
    <interval begin="0.00" end="30.00" id="od4_2" nVehContrib="4" flow="480.00" occupancy="7.75" speed="11.18" harmonicMeanSpeed="11.18" length="6.50" nVehEntered="4"/>
    <interval begin="0.00" end="30.00" id="ood1_0" nVehContrib="3" flow="360.00" occupancy="6.52" speed="11.18" harmonicMeanSpeed="11.18" length="6.67" nVehEntered="4"/>
    <interval begin="0.00" end="30.00" id="ood1_1" nVehContrib="0" flow="0.00" occupancy="0.00" speed="-1.00" harmonicMeanSpeed="-1.00" length="-1.00" nVehEntered="0"/>
    <interval begin="0.00" end="30.00" id="ood1_2" nVehContrib="5" flow="600.00" occupancy="9.84" speed="11.18" harmonicMeanSpeed="11.18" length="6.60" nVehEntered="5"/>
    <interval begin="0.00" end="30.00" id="ood2_0" nVehContrib="4" flow="480.00" occupancy="7.75" speed="11.18" harmonicMeanSpeed="11.18" length="6.50" nVehEntered="4"/>
    <interval begin="0.00" end="30.00" id="ood2_1" nVehContrib="2" flow="240.00" occupancy="4.77" speed="11.18" harmonicMeanSpeed="11.18" length="8.00" nVehEntered="2"/>
    <interval begin="0.00" end="30.00" id="ood2_2" nVehContrib="2" flow="240.00" occupancy="3.88" speed="11.18" harmonicMeanSpeed="11.18" length="5.00" nVehEntered="3"/>
    <interval begin="0.00" end="30.00" id="ood3_0" nVehContrib="2" flow="240.00" occupancy="4.17" speed="11.18" harmonicMeanSpeed="11.18" length="7.00" nVehEntered="2"/>
    <interval begin="0.00" end="30.00" id="ood3_1" nVehContrib="1" flow="120.00" occupancy="1.79" speed="11.18" harmonicMeanSpeed="11.18" length="6.00" nVehEntered="1"/>
    <interval begin="0.00" end="30.00" id="ood3_2" nVehContrib="2" flow="240.00" occupancy="5.07" speed="11.18" harmonicMeanSpeed="11.18" length="8.50" nVehEntered="2"/>
    <interval begin="0.00" end="30.00" id="ood4_0" nVehContrib="1" flow="120.00" occupancy="1.79" speed="11.18" harmonicMeanSpeed="11.18" length="6.00" nVehEntered="1"/>
    <interval begin="0.00" end="30.00" id="ood4_1" nVehContrib="1" flow="120.00" occupancy="1.49" speed="11.18" harmonicMeanSpeed="11.18" length="5.00" nVehEntered="1"/>
    <interval begin="0.00" end="30.00" id="ood4_2" nVehContrib="5" flow="600.00" occupancy="9.54" speed="11.18" harmonicMeanSpeed="11.18" length="6.40" nVehEntered="5"/>
    <interval begin="0.00" end="30.00" id="oood1_0" nVehContrib="4" flow="480.00" occupancy="7.46" speed="11.17" harmonicMeanSpeed="11.17" length="6.25" nVehEntered="4"/>
    <interval begin="0.00" end="30.00" id="oood1_1" nVehContrib="0" flow="0.00" occupancy="0.00" speed="-1.00" harmonicMeanSpeed="-1.00" length="-1.00" nVehEntered="0"/>
    <interval begin="0.00" end="30.00" id="oood1_2" nVehContrib="5" flow="600.00" occupancy="9.99" speed="11.00" harmonicMeanSpeed="11.00" length="6.60" nVehEntered="5"/>
    <interval begin="0.00" end="30.00" id="oood2_0" nVehContrib="4" flow="480.00" occupancy="7.84" speed="11.07" harmonicMeanSpeed="11.07" length="6.50" nVehEntered="4"/>
    <interval begin="0.00" end="30.00" id="oood2_1" nVehContrib="3" flow="360.00" occupancy="6.26" speed="11.17" harmonicMeanSpeed="11.17" length="7.00" nVehEntered="3"/>
    <interval begin="0.00" end="30.00" id="oood2_2" nVehContrib="3" flow="360.00" occupancy="5.07" speed="11.18" harmonicMeanSpeed="11.18" length="5.67" nVehEntered="3"/>
    <interval begin="0.00" end="30.00" id="oood3_0" nVehContrib="2" flow="240.00" occupancy="4.17" speed="11.18" harmonicMeanSpeed="11.18" length="7.00" nVehEntered="2"/>
    <interval begin="0.00" end="30.00" id="oood3_1" nVehContrib="1" flow="120.00" occupancy="1.79" speed="11.18" harmonicMeanSpeed="11.18" length="6.00" nVehEntered="1"/>
    <interval begin="0.00" end="30.00" id="oood3_2" nVehContrib="2" flow="240.00" occupancy="5.08" speed="11.16" harmonicMeanSpeed="11.16" length="8.50" nVehEntered="2"/>
    <interval begin="0.00" end="30.00" id="oood4_0" nVehContrib="1" flow="120.00" occupancy="1.79" speed="11.18" harmonicMeanSpeed="11.18" length="6.00" nVehEntered="1"/>
    <interval begin="0.00" end="30.00" id="oood4_1" nVehContrib="1" flow="120.00" occupancy="1.49" speed="11.18" harmonicMeanSpeed="11.18" length="5.00" nVehEntered="1"/>
    <interval begin="0.00" end="30.00" id="oood4_2" nVehContrib="5" flow="600.00" occupancy="9.79" speed="10.92" harmonicMeanSpeed="10.91" length="6.40" nVehEntered="5"/>
    <interval begin="0.00" end="30.00" id="ooood1_0" nVehContrib="3" flow="360.00" occupancy="5.35" speed="20.29" harmonicMeanSpeed="15.45" length="8.00" nVehEntered="5"/>
    <interval begin="0.00" end="30.00" id="ooood1_1" nVehContrib="12" flow="1440.00" occupancy="7.55" speed="36.68" harmonicMeanSpeed="34.84" length="6.92" nVehEntered="12"/>
    <interval begin="0.00" end="30.00" id="ooood1_2" nVehContrib="1" flow="120.00" occupancy="2.36" speed="8.48" harmonicMeanSpeed="8.48" length="6.00" nVehEntered="1"/>
    <interval begin="0.00" end="30.00" id="ooood2_0" nVehContrib="4" flow="480.00" occupancy="8.77" speed="10.77" harmonicMeanSpeed="10.19" length="7.00" nVehEntered="6"/>
    <interval begin="0.00" end="30.00" id="ooood2_1" nVehContrib="5" flow="600.00" occupancy="4.38" speed="38.42" harmonicMeanSpeed="21.16" length="6.20" nVehEntered="10"/>
    <interval begin="0.00" end="30.00" id="ooood2_2" nVehContrib="5" flow="600.00" occupancy="7.03" speed="19.17" harmonicMeanSpeed="16.14" length="6.60" nVehEntered="8"/>
    <interval begin="0.00" end="30.00" id="ooood3_0" nVehContrib="1" flow="120.00" occupancy="2.45" speed="9.52" harmonicMeanSpeed="9.52" length="7.00" nVehEntered="1"/>
    <interval begin="0.00" end="30.00" id="ooood3_1" nVehContrib="3" flow="360.00" occupancy="3.60" speed="29.61" harmonicMeanSpeed="17.71" length="7.00" nVehEntered="3"/>
    <interval begin="0.00" end="30.00" id="ooood3_2" nVehContrib="5" flow="600.00" occupancy="8.63" speed="20.24" harmonicMeanSpeed="12.42" length="6.80" nVehEntered="6"/>
    <interval begin="0.00" end="30.00" id="ooood4_0" nVehContrib="5" flow="600.00" occupancy="5.28" speed="24.07" harmonicMeanSpeed="19.69" length="6.20" nVehEntered="7"/>
    <interval begin="0.00" end="30.00" id="ooood4_1" nVehContrib="4" flow="480.00" occupancy="3.93" speed="25.25" harmonicMeanSpeed="21.26" length="6.00" nVehEntered="8"/>
    <interval begin="0.00" end="30.00" id="ooood4_2" nVehContrib="4" flow="480.00" occupancy="6.71" speed="14.34" harmonicMeanSpeed="12.15" length="6.00" nVehEntered="6"/>
    <interval begin="30.00" end="60.00" id="d1_0" nVehContrib="5" flow="600.00" occupancy="11.33" speed="11.18" harmonicMeanSpeed="11.18" length="7.60" nVehEntered="5"/>
    <interval begin="30.00" end="60.00" id="d1_1" nVehContrib="0" flow="0.00" occupancy="0.00" speed="-1.00" harmonicMeanSpeed="-1.00" length="-1.00" nVehEntered="0"/>
    <interval begin="30.00" end="60.00" id="d1_2" nVehContrib="5" flow="600.00" occupancy="11.29" speed="11.18" harmonicMeanSpeed="11.18" length="7.40" nVehEntered="6"/>
    <interval begin="30.00" end="60.00" id="d2_0" nVehContrib="3" flow="360.00" occupancy="5.96" speed="11.18" harmonicMeanSpeed="11.18" length="6.67" nVehEntered="3"/>
    <interval begin="30.00" end="60.00" id="d2_1" nVehContrib="4" flow="480.00" occupancy="6.56" speed="11.18" harmonicMeanSpeed="11.18" length="5.50" nVehEntered="4"/>
    <interval begin="30.00" end="60.00" id="d2_2" nVehContrib="6" flow="720.00" occupancy="12.52" speed="11.18" harmonicMeanSpeed="11.18" length="7.00" nVehEntered="6"/>
    <interval begin="30.00" end="60.00" id="d3_0" nVehContrib="2" flow="240.00" occupancy="4.17" speed="11.18" harmonicMeanSpeed="11.18" length="7.00" nVehEntered="2"/>
    <interval begin="30.00" end="60.00" id="d3_1" nVehContrib="2" flow="240.00" occupancy="3.58" speed="11.18" harmonicMeanSpeed="11.18" length="6.00" nVehEntered="2"/>
    <interval begin="30.00" end="60.00" id="d3_2" nVehContrib="6" flow="720.00" occupancy="12.52" speed="11.18" harmonicMeanSpeed="11.18" length="7.00" nVehEntered="6"/>
    <interval begin="30.00" end="60.00" id="d4_0" nVehContrib="4" flow="480.00" occupancy="7.16" speed="11.18" harmonicMeanSpeed="11.18" length="6.00" nVehEntered="4"/>
    <interval begin="30.00" end="60.00" id="d4_1" nVehContrib="2" flow="240.00" occupancy="3.58" speed="11.18" harmonicMeanSpeed="11.18" length="6.00" nVehEntered="2"/>
    <interval begin="30.00" end="60.00" id="d4_2" nVehContrib="6" flow="720.00" occupancy="11.33" speed="11.18" harmonicMeanSpeed="11.18" length="6.33" nVehEntered="6"/>
    <interval begin="30.00" end="60.00" id="od1_0" nVehContrib="5" flow="600.00" occupancy="11.33" speed="11.18" harmonicMeanSpeed="11.18" length="7.60" nVehEntered="5"/>
    <interval begin="30.00" end="60.00" id="od1_1" nVehContrib="0" flow="0.00" occupancy="0.00" speed="-1.00" harmonicMeanSpeed="-1.00" length="-1.00" nVehEntered="0"/>
    <interval begin="30.00" end="60.00" id="od1_2" nVehContrib="6" flow="720.00" occupancy="14.92" speed="11.18" harmonicMeanSpeed="11.18" length="7.67" nVehEntered="7"/>
    <interval begin="30.00" end="60.00" id="od2_0" nVehContrib="4" flow="480.00" occupancy="8.05" speed="11.18" harmonicMeanSpeed="11.18" length="6.75" nVehEntered="4"/>
    <interval begin="30.00" end="60.00" id="od2_1" nVehContrib="4" flow="480.00" occupancy="5.96" speed="11.18" harmonicMeanSpeed="11.18" length="5.00" nVehEntered="4"/>
    <interval begin="30.00" end="60.00" id="od2_2" nVehContrib="5" flow="600.00" occupancy="11.03" speed="11.18" harmonicMeanSpeed="11.18" length="7.40" nVehEntered="5"/>
    <interval begin="30.00" end="60.00" id="od3_0" nVehContrib="2" flow="240.00" occupancy="4.17" speed="11.18" harmonicMeanSpeed="11.18" length="7.00" nVehEntered="2"/>
    <interval begin="30.00" end="60.00" id="od3_1" nVehContrib="2" flow="240.00" occupancy="3.04" speed="11.18" harmonicMeanSpeed="11.18" length="6.00" nVehEntered="1"/>
    <interval begin="30.00" end="60.00" id="od3_2" nVehContrib="6" flow="720.00" occupancy="12.12" speed="11.18" harmonicMeanSpeed="11.18" length="7.00" nVehEntered="5"/>
    <interval begin="30.00" end="60.00" id="od4_0" nVehContrib="4" flow="480.00" occupancy="7.16" speed="11.18" harmonicMeanSpeed="11.18" length="6.00" nVehEntered="4"/>
    <interval begin="30.00" end="60.00" id="od4_1" nVehContrib="2" flow="240.00" occupancy="3.58" speed="11.18" harmonicMeanSpeed="11.18" length="6.00" nVehEntered="2"/>
    <interval begin="30.00" end="60.00" id="od4_2" nVehContrib="6" flow="720.00" occupancy="11.33" speed="11.18" harmonicMeanSpeed="11.18" length="6.33" nVehEntered="6"/>
    <interval begin="30.00" end="60.00" id="ood1_0" nVehContrib="5" flow="600.00" occupancy="10.78" speed="11.18" harmonicMeanSpeed="11.18" length="7.60" nVehEntered="4"/>
    <interval begin="30.00" end="60.00" id="ood1_1" nVehContrib="0" flow="0.00" occupancy="0.00" speed="-1.00" harmonicMeanSpeed="-1.00" length="-1.00" nVehEntered="0"/>
    <interval begin="30.00" end="60.00" id="ood1_2" nVehContrib="6" flow="720.00" occupancy="13.71" speed="11.18" harmonicMeanSpeed="11.18" length="7.67" nVehEntered="6"/>
    <interval begin="30.00" end="60.00" id="ood2_0" nVehContrib="4" flow="480.00" occupancy="7.16" speed="11.18" harmonicMeanSpeed="11.18" length="6.00" nVehEntered="4"/>
    <interval begin="30.00" end="60.00" id="ood2_1" nVehContrib="4" flow="480.00" occupancy="5.96" speed="11.18" harmonicMeanSpeed="11.18" length="5.00" nVehEntered="4"/>
    <interval begin="30.00" end="60.00" id="ood2_2" nVehContrib="5" flow="600.00" occupancy="10.14" speed="11.18" harmonicMeanSpeed="11.18" length="7.40" nVehEntered="4"/>
    <interval begin="30.00" end="60.00" id="ood3_0" nVehContrib="2" flow="240.00" occupancy="4.17" speed="11.18" harmonicMeanSpeed="11.18" length="7.00" nVehEntered="2"/>
    <interval begin="30.00" end="60.00" id="ood3_1" nVehContrib="1" flow="120.00" occupancy="1.79" speed="11.18" harmonicMeanSpeed="11.18" length="6.00" nVehEntered="1"/>
    <interval begin="30.00" end="60.00" id="ood3_2" nVehContrib="6" flow="720.00" occupancy="11.63" speed="11.18" harmonicMeanSpeed="11.18" length="6.50" nVehEntered="6"/>
    <interval begin="30.00" end="60.00" id="ood4_0" nVehContrib="5" flow="600.00" occupancy="8.94" speed="11.18" harmonicMeanSpeed="11.18" length="6.00" nVehEntered="5"/>
    <interval begin="30.00" end="60.00" id="ood4_1" nVehContrib="2" flow="240.00" occupancy="3.58" speed="11.18" harmonicMeanSpeed="11.18" length="6.00" nVehEntered="2"/>
    <interval begin="30.00" end="60.00" id="ood4_2" nVehContrib="6" flow="720.00" occupancy="11.63" speed="11.18" harmonicMeanSpeed="11.18" length="6.50" nVehEntered="6"/>
    <interval begin="30.00" end="60.00" id="oood1_0" nVehContrib="4" flow="480.00" occupancy="9.86" speed="11.15" harmonicMeanSpeed="11.15" length="8.25" nVehEntered="4"/>
    <interval begin="30.00" end="60.00" id="oood1_1" nVehContrib="1" flow="120.00" occupancy="2.39" speed="11.18" harmonicMeanSpeed="11.18" length="8.00" nVehEntered="1"/>
    <interval begin="30.00" end="60.00" id="oood1_2" nVehContrib="7" flow="840.00" occupancy="15.44" speed="10.99" harmonicMeanSpeed="10.98" length="7.29" nVehEntered="7"/>
    <interval begin="30.00" end="60.00" id="oood2_0" nVehContrib="4" flow="480.00" occupancy="7.17" speed="11.16" harmonicMeanSpeed="11.16" length="6.00" nVehEntered="4"/>
    <interval begin="30.00" end="60.00" id="oood2_1" nVehContrib="3" flow="360.00" occupancy="4.48" speed="11.16" harmonicMeanSpeed="11.16" length="5.00" nVehEntered="3"/>
    <interval begin="30.00" end="60.00" id="oood2_2" nVehContrib="5" flow="600.00" occupancy="11.60" speed="10.92" harmonicMeanSpeed="10.92" length="7.60" nVehEntered="5"/>
    <interval begin="30.00" end="60.00" id="oood3_0" nVehContrib="2" flow="240.00" occupancy="4.17" speed="11.18" harmonicMeanSpeed="11.18" length="7.00" nVehEntered="2"/>
    <interval begin="30.00" end="60.00" id="oood3_1" nVehContrib="1" flow="120.00" occupancy="1.79" speed="11.17" harmonicMeanSpeed="11.17" length="6.00" nVehEntered="1"/>
    <interval begin="30.00" end="60.00" id="oood3_2" nVehContrib="6" flow="720.00" occupancy="12.01" speed="10.85" harmonicMeanSpeed="10.85" length="6.50" nVehEntered="6"/>
    <interval begin="30.00" end="60.00" id="oood4_0" nVehContrib="5" flow="600.00" occupancy="11.13" speed="11.17" harmonicMeanSpeed="11.17" length="6.00" nVehEntered="6"/>
    <interval begin="30.00" end="60.00" id="oood4_1" nVehContrib="2" flow="240.00" occupancy="3.58" speed="11.17" harmonicMeanSpeed="11.17" length="6.00" nVehEntered="2"/>
    <interval begin="30.00" end="60.00" id="oood4_2" nVehContrib="6" flow="720.00" occupancy="11.97" speed="10.88" harmonicMeanSpeed="10.88" length="6.50" nVehEntered="6"/>
    <interval begin="30.00" end="60.00" id="ooood1_0" nVehContrib="3" flow="360.00" occupancy="6.50" speed="11.29" harmonicMeanSpeed="10.04" length="7.00" nVehEntered="4"/>
    <interval begin="30.00" end="60.00" id="ooood1_1" nVehContrib="6" flow="720.00" occupancy="4.83" speed="36.27" harmonicMeanSpeed="31.73" length="7.67" nVehEntered="7"/>
    <interval begin="30.00" end="60.00" id="ooood1_2" nVehContrib="3" flow="360.00" occupancy="9.41" speed="9.19" harmonicMeanSpeed="6.69" length="7.33" nVehEntered="5"/>
    <interval begin="30.00" end="60.00" id="ooood2_0" nVehContrib="4" flow="480.00" occupancy="8.92" speed="11.35" harmonicMeanSpeed="10.15" length="7.25" nVehEntered="6"/>
    <interval begin="30.00" end="60.00" id="ooood2_1" nVehContrib="3" flow="360.00" occupancy="6.17" speed="8.64" harmonicMeanSpeed="8.60" length="5.33" nVehEntered="5"/>
    <interval begin="30.00" end="60.00" id="ooood2_2" nVehContrib="5" flow="600.00" occupancy="11.22" speed="10.28" harmonicMeanSpeed="8.85" length="6.60" nVehEntered="8"/>
    <interval begin="30.00" end="60.00" id="ooood3_0" nVehContrib="4" flow="480.00" occupancy="5.92" speed="24.06" harmonicMeanSpeed="14.21" length="6.75" nVehEntered="7"/>
    <interval begin="30.00" end="60.00" id="ooood3_1" nVehContrib="5" flow="600.00" occupancy="30.67" speed="10.50" harmonicMeanSpeed="4.68" length="8.00" nVehEntered="11"/>
    <interval begin="30.00" end="60.00" id="ooood3_2" nVehContrib="6" flow="720.00" occupancy="20.18" speed="10.23" harmonicMeanSpeed="5.74" length="6.33" nVehEntered="8"/>
    <interval begin="30.00" end="60.00" id="ooood4_0" nVehContrib="5" flow="600.00" occupancy="14.28" speed="8.04" harmonicMeanSpeed="6.70" length="6.20" nVehEntered="9"/>
    <interval begin="30.00" end="60.00" id="ooood4_1" nVehContrib="5" flow="600.00" occupancy="9.15" speed="19.33" harmonicMeanSpeed="14.53" length="7.60" nVehEntered="11"/>
    <interval begin="30.00" end="60.00" id="ooood4_2" nVehContrib="5" flow="600.00" occupancy="8.71" speed="18.38" harmonicMeanSpeed="14.95" length="7.80" nVehEntered="8"/>
    <interval begin="60.00" end="90.00" id="d1_0" nVehContrib="3" flow="360.00" occupancy="6.26" speed="11.18" harmonicMeanSpeed="11.18" length="7.00" nVehEntered="3"/>
    <interval begin="60.00" end="90.00" id="d1_1" nVehContrib="2" flow="240.00" occupancy="6.00" speed="11.18" harmonicMeanSpeed="11.18" length="8.00" nVehEntered="3"/>
    <interval begin="60.00" end="90.00" id="d1_2" nVehContrib="7" flow="840.00" occupancy="14.95" speed="11.18" harmonicMeanSpeed="11.18" length="7.29" nVehEntered="6"/>
    <interval begin="60.00" end="90.00" id="d2_0" nVehContrib="4" flow="480.00" occupancy="7.75" speed="11.18" harmonicMeanSpeed="11.18" length="6.50" nVehEntered="4"/>
    <interval begin="60.00" end="90.00" id="d2_1" nVehContrib="1" flow="120.00" occupancy="1.49" speed="11.18" harmonicMeanSpeed="11.18" length="5.00" nVehEntered="1"/>
    <interval begin="60.00" end="90.00" id="d2_2" nVehContrib="6" flow="720.00" occupancy="13.12" speed="11.18" harmonicMeanSpeed="11.18" length="7.33" nVehEntered="6"/>
    <interval begin="60.00" end="90.00" id="d3_0" nVehContrib="4" flow="480.00" occupancy="7.45" speed="11.18" harmonicMeanSpeed="11.18" length="6.25" nVehEntered="4"/>
    <interval begin="60.00" end="90.00" id="d3_1" nVehContrib="3" flow="360.00" occupancy="6.56" speed="11.18" harmonicMeanSpeed="11.18" length="7.33" nVehEntered="3"/>
    <interval begin="60.00" end="90.00" id="d3_2" nVehContrib="6" flow="720.00" occupancy="12.52" speed="11.18" harmonicMeanSpeed="11.18" length="7.00" nVehEntered="6"/>
    <interval begin="60.00" end="90.00" id="d4_0" nVehContrib="6" flow="720.00" occupancy="12.82" speed="11.18" harmonicMeanSpeed="11.18" length="7.17" nVehEntered="6"/>
    <interval begin="60.00" end="90.00" id="d4_1" nVehContrib="0" flow="0.00" occupancy="0.00" speed="-1.00" harmonicMeanSpeed="-1.00" length="-1.00" nVehEntered="0"/>
    <interval begin="60.00" end="90.00" id="d4_2" nVehContrib="5" flow="600.00" occupancy="11.76" speed="11.18" harmonicMeanSpeed="11.18" length="7.80" nVehEntered="6"/>
    <interval begin="60.00" end="90.00" id="od1_0" nVehContrib="4" flow="480.00" occupancy="7.75" speed="11.18" harmonicMeanSpeed="11.18" length="6.50" nVehEntered="4"/>
    <interval begin="60.00" end="90.00" id="od1_1" nVehContrib="3" flow="360.00" occupancy="6.26" speed="11.18" harmonicMeanSpeed="11.18" length="7.00" nVehEntered="3"/>
    <interval begin="60.00" end="90.00" id="od1_2" nVehContrib="6" flow="720.00" occupancy="11.31" speed="11.18" harmonicMeanSpeed="11.18" length="7.00" nVehEntered="5"/>
    <interval begin="60.00" end="90.00" id="od2_0" nVehContrib="3" flow="360.00" occupancy="5.66" speed="11.18" harmonicMeanSpeed="11.18" length="6.33" nVehEntered="3"/>
    <interval begin="60.00" end="90.00" id="od2_1" nVehContrib="0" flow="0.00" occupancy="0.00" speed="-1.00" harmonicMeanSpeed="-1.00" length="-1.00" nVehEntered="0"/>
    <interval begin="60.00" end="90.00" id="od2_2" nVehContrib="6" flow="720.00" occupancy="13.12" speed="11.18" harmonicMeanSpeed="11.18" length="7.33" nVehEntered="6"/>
    <interval begin="60.00" end="90.00" id="od3_0" nVehContrib="4" flow="480.00" occupancy="7.45" speed="11.18" harmonicMeanSpeed="11.18" length="6.25" nVehEntered="4"/>
    <interval begin="60.00" end="90.00" id="od3_1" nVehContrib="3" flow="360.00" occupancy="6.56" speed="11.18" harmonicMeanSpeed="11.18" length="7.33" nVehEntered="3"/>
    <interval begin="60.00" end="90.00" id="od3_2" nVehContrib="6" flow="720.00" occupancy="12.52" speed="11.18" harmonicMeanSpeed="11.18" length="7.00" nVehEntered="6"/>
    <interval begin="60.00" end="90.00" id="od4_0" nVehContrib="6" flow="720.00" occupancy="12.82" speed="11.18" harmonicMeanSpeed="11.18" length="7.17" nVehEntered="6"/>
    <interval begin="60.00" end="90.00" id="od4_1" nVehContrib="0" flow="0.00" occupancy="0.00" speed="-1.00" harmonicMeanSpeed="-1.00" length="-1.00" nVehEntered="0"/>
    <interval begin="60.00" end="90.00" id="od4_2" nVehContrib="6" flow="720.00" occupancy="14.31" speed="11.18" harmonicMeanSpeed="11.18" length="8.00" nVehEntered="6"/>
    <interval begin="60.00" end="90.00" id="ood1_0" nVehContrib="4" flow="480.00" occupancy="7.75" speed="11.18" harmonicMeanSpeed="11.18" length="6.50" nVehEntered="4"/>
    <interval begin="60.00" end="90.00" id="ood1_1" nVehContrib="3" flow="360.00" occupancy="6.26" speed="11.18" harmonicMeanSpeed="11.18" length="7.00" nVehEntered="3"/>
    <interval begin="60.00" end="90.00" id="ood1_2" nVehContrib="6" flow="720.00" occupancy="12.22" speed="11.18" harmonicMeanSpeed="11.18" length="6.83" nVehEntered="6"/>
    <interval begin="60.00" end="90.00" id="ood2_0" nVehContrib="3" flow="360.00" occupancy="6.56" speed="11.18" harmonicMeanSpeed="11.18" length="7.33" nVehEntered="3"/>
    <interval begin="60.00" end="90.00" id="ood2_1" nVehContrib="0" flow="0.00" occupancy="0.00" speed="-1.00" harmonicMeanSpeed="-1.00" length="-1.00" nVehEntered="0"/>
    <interval begin="60.00" end="90.00" id="ood2_2" nVehContrib="6" flow="720.00" occupancy="13.12" speed="11.18" harmonicMeanSpeed="11.18" length="7.33" nVehEntered="6"/>
    <interval begin="60.00" end="90.00" id="ood3_0" nVehContrib="4" flow="480.00" occupancy="7.45" speed="11.18" harmonicMeanSpeed="11.18" length="6.25" nVehEntered="4"/>
    <interval begin="60.00" end="90.00" id="ood3_1" nVehContrib="3" flow="360.00" occupancy="6.56" speed="11.18" harmonicMeanSpeed="11.18" length="7.33" nVehEntered="3"/>
    <interval begin="60.00" end="90.00" id="ood3_2" nVehContrib="6" flow="720.00" occupancy="13.71" speed="11.18" harmonicMeanSpeed="11.18" length="7.67" nVehEntered="6"/>
    <interval begin="60.00" end="90.00" id="ood4_0" nVehContrib="6" flow="720.00" occupancy="12.52" speed="11.18" harmonicMeanSpeed="11.18" length="7.00" nVehEntered="6"/>
    <interval begin="60.00" end="90.00" id="ood4_1" nVehContrib="0" flow="0.00" occupancy="0.00" speed="-1.00" harmonicMeanSpeed="-1.00" length="-1.00" nVehEntered="0"/>
    <interval begin="60.00" end="90.00" id="ood4_2" nVehContrib="5" flow="600.00" occupancy="12.22" speed="11.18" harmonicMeanSpeed="11.18" length="8.20" nVehEntered="5"/>
    <interval begin="60.00" end="90.00" id="oood1_0" nVehContrib="4" flow="480.00" occupancy="7.75" speed="11.18" harmonicMeanSpeed="11.18" length="6.50" nVehEntered="4"/>
    <interval begin="60.00" end="90.00" id="oood1_1" nVehContrib="2" flow="240.00" occupancy="5.57" speed="11.16" harmonicMeanSpeed="11.16" length="6.50" nVehEntered="3"/>
    <interval begin="60.00" end="90.00" id="oood1_2" nVehContrib="5" flow="600.00" occupancy="11.02" speed="10.88" harmonicMeanSpeed="10.87" length="7.20" nVehEntered="5"/>
    <interval begin="60.00" end="90.00" id="oood2_0" nVehContrib="3" flow="360.00" occupancy="6.63" speed="11.08" harmonicMeanSpeed="11.08" length="7.33" nVehEntered="3"/>
    <interval begin="60.00" end="90.00" id="oood2_1" nVehContrib="0" flow="0.00" occupancy="0.00" speed="-1.00" harmonicMeanSpeed="-1.00" length="-1.00" nVehEntered="0"/>
    <interval begin="60.00" end="90.00" id="oood2_2" nVehContrib="6" flow="720.00" occupancy="14.13" speed="10.98" harmonicMeanSpeed="10.98" length="7.50" nVehEntered="7"/>
    <interval begin="60.00" end="90.00" id="oood3_0" nVehContrib="4" flow="480.00" occupancy="7.48" speed="11.14" harmonicMeanSpeed="11.14" length="6.25" nVehEntered="4"/>
    <interval begin="60.00" end="90.00" id="oood3_1" nVehContrib="3" flow="360.00" occupancy="6.56" speed="11.18" harmonicMeanSpeed="11.18" length="7.33" nVehEntered="3"/>
    <interval begin="60.00" end="90.00" id="oood3_2" nVehContrib="6" flow="720.00" occupancy="14.08" speed="10.89" harmonicMeanSpeed="10.88" length="7.67" nVehEntered="6"/>
    <interval begin="60.00" end="90.00" id="oood4_0" nVehContrib="6" flow="720.00" occupancy="10.92" speed="10.65" harmonicMeanSpeed="10.63" length="7.00" nVehEntered="5"/>
    <interval begin="60.00" end="90.00" id="oood4_1" nVehContrib="0" flow="0.00" occupancy="0.00" speed="-1.00" harmonicMeanSpeed="-1.00" length="-1.00" nVehEntered="0"/>
    <interval begin="60.00" end="90.00" id="oood4_2" nVehContrib="6" flow="720.00" occupancy="15.15" speed="10.78" harmonicMeanSpeed="10.78" length="8.17" nVehEntered="6"/>