<?xml version="1.0" encoding="UTF-8"?>

<!-- generated on 07/06/20 13:34:36 by Eclipse SUMO GUI Version 1.6.0
<configuration xmlns:xsi="http://www.w3.org/2001/XMLSchema-instance" xsi:noNamespaceSchemaLocation="http://sumo.dlr.de/xsd/sumoConfiguration.xsd">

    <input>
        <net-file value="data/lane3.net.xml"/>
        <route-files value="data/icacc+.rou.xml"/>
        <additional-files value="data/icacc+.det.xml"/>
    </input>

    <output>
        <tripinfo-output value="tripinfo.xml"/>
    </output>

    <time>
        <begin value="0"/>
        <step-length value="0.1"/>
    </time>

    <processing>
        <collision.mingap-factor value="0"/>
        <time-to-teleport value="-1"/>
        <lanechange.duration value="2"/>
    </processing>

    <report>
        <verbose value="true"/>
        <no-step-log value="true"/>
    </report>

    <traci_server>
        <remote-port value="8595"/>
    </traci_server>

    <gui_only>
        <start value="true"/>
        <tracker-interval value="0.1"/>
    </gui_only>

</configuration>
-->

<detector xmlns:xsi="http://www.w3.org/2001/XMLSchema-instance" xsi:noNamespaceSchemaLocation="http://sumo.dlr.de/xsd/det_e1_file.xsd">
    <interval begin="0.00" end="30.00" id="d1_0" nVehContrib="4" flow="480.00" occupancy="8.94" speed="11.18" harmonicMeanSpeed="11.18" length="7.50" nVehEntered="4"/>
    <interval begin="0.00" end="30.00" id="d1_1" nVehContrib="3" flow="360.00" occupancy="6.86" speed="11.18" harmonicMeanSpeed="11.18" length="7.67" nVehEntered="3"/>
    <interval begin="0.00" end="30.00" id="d1_2" nVehContrib="4" flow="480.00" occupancy="9.24" speed="11.18" harmonicMeanSpeed="11.18" length="7.75" nVehEntered="4"/>
    <interval begin="0.00" end="30.00" id="d2_0" nVehContrib="4" flow="480.00" occupancy="8.65" speed="11.18" harmonicMeanSpeed="11.18" length="7.25" nVehEntered="4"/>
    <interval begin="0.00" end="30.00" id="d2_1" nVehContrib="1" flow="120.00" occupancy="2.39" speed="11.18" harmonicMeanSpeed="11.18" length="8.00" nVehEntered="1"/>
    <interval begin="0.00" end="30.00" id="d2_2" nVehContrib="6" flow="720.00" occupancy="11.63" speed="11.18" harmonicMeanSpeed="11.18" length="6.50" nVehEntered="6"/>
    <interval begin="0.00" end="30.00" id="d3_0" nVehContrib="4" flow="480.00" occupancy="8.94" speed="11.18" harmonicMeanSpeed="11.18" length="7.50" nVehEntered="4"/>
    <interval begin="0.00" end="30.00" id="d3_1" nVehContrib="1" flow="120.00" occupancy="2.68" speed="11.18" harmonicMeanSpeed="11.18" length="9.00" nVehEntered="1"/>
    <interval begin="0.00" end="30.00" id="d3_2" nVehContrib="5" flow="600.00" occupancy="11.63" speed="11.18" harmonicMeanSpeed="11.18" length="7.80" nVehEntered="5"/>
    <interval begin="0.00" end="30.00" id="d4_0" nVehContrib="4" flow="480.00" occupancy="8.94" speed="11.18" harmonicMeanSpeed="11.18" length="7.50" nVehEntered="4"/>
    <interval begin="0.00" end="30.00" id="d4_1" nVehContrib="4" flow="480.00" occupancy="11.96" speed="10.05" harmonicMeanSpeed="9.56" length="8.50" nVehEntered="4"/>
    <interval begin="0.00" end="30.00" id="d4_2" nVehContrib="4" flow="480.00" occupancy="9.04" speed="11.18" harmonicMeanSpeed="11.18" length="6.75" nVehEntered="5"/>
    <interval begin="0.00" end="30.00" id="od1_0" nVehContrib="5" flow="600.00" occupancy="13.33" speed="11.18" harmonicMeanSpeed="11.18" length="7.80" nVehEntered="6"/>
    <interval begin="0.00" end="30.00" id="od1_1" nVehContrib="3" flow="360.00" occupancy="6.86" speed="11.18" harmonicMeanSpeed="11.18" length="7.67" nVehEntered="3"/>
    <interval begin="0.00" end="30.00" id="od1_2" nVehContrib="4" flow="480.00" occupancy="9.24" speed="11.18" harmonicMeanSpeed="11.18" length="7.75" nVehEntered="4"/>
    <interval begin="0.00" end="30.00" id="od2_0" nVehContrib="4" flow="480.00" occupancy="8.65" speed="11.18" harmonicMeanSpeed="11.18" length="7.25" nVehEntered="4"/>
    <interval begin="0.00" end="30.00" id="od2_1" nVehContrib="1" flow="120.00" occupancy="3.27" speed="11.18" harmonicMeanSpeed="11.18" length="8.00" nVehEntered="2"/>
    <interval begin="0.00" end="30.00" id="od2_2" nVehContrib="7" flow="840.00" occupancy="13.12" speed="11.18" harmonicMeanSpeed="11.18" length="6.29" nVehEntered="7"/>
    <interval begin="0.00" end="30.00" id="od3_0" nVehContrib="4" flow="480.00" occupancy="8.94" speed="11.18" harmonicMeanSpeed="11.18" length="7.50" nVehEntered="4"/>
    <interval begin="0.00" end="30.00" id="od3_1" nVehContrib="1" flow="120.00" occupancy="2.68" speed="11.18" harmonicMeanSpeed="11.18" length="9.00" nVehEntered="1"/>
    <interval begin="0.00" end="30.00" id="od3_2" nVehContrib="6" flow="720.00" occupancy="16.26" speed="11.18" harmonicMeanSpeed="11.18" length="7.33" nVehEntered="7"/>
    <interval begin="0.00" end="30.00" id="od4_0" nVehContrib="4" flow="480.00" occupancy="8.94" speed="11.18" harmonicMeanSpeed="11.18" length="7.50" nVehEntered="4"/>
    <interval begin="0.00" end="30.00" id="od4_1" nVehContrib="4" flow="480.00" occupancy="10.14" speed="11.18" harmonicMeanSpeed="11.18" length="8.50" nVehEntered="4"/>
    <interval begin="0.00" end="30.00" id="od4_2" nVehContrib="5" flow="600.00" occupancy="10.73" speed="11.18" harmonicMeanSpeed="11.18" length="7.20" nVehEntered="5"/>
    <interval begin="0.00" end="30.00" id="ood1_0" nVehContrib="7" flow="840.00" occupancy="15.50" speed="11.18" harmonicMeanSpeed="11.18" length="7.14" nVehEntered="8"/>
    <interval begin="0.00" end="30.00" id="ood1_1" nVehContrib="3" flow="360.00" occupancy="6.86" speed="11.18" harmonicMeanSpeed="11.18" length="7.67" nVehEntered="3"/>
    <interval begin="0.00" end="30.00" id="ood1_2" nVehContrib="4" flow="480.00" occupancy="9.24" speed="11.18" harmonicMeanSpeed="11.18" length="7.75" nVehEntered="4"/>
    <interval begin="0.00" end="30.00" id="ood2_0" nVehContrib="4" flow="480.00" occupancy="8.65" speed="11.18" harmonicMeanSpeed="11.18" length="7.25" nVehEntered="4"/>
    <interval begin="0.00" end="30.00" id="ood2_1" nVehContrib="2" flow="240.00" occupancy="4.17" speed="11.18" harmonicMeanSpeed="11.18" length="7.00" nVehEntered="2"/>
    <interval begin="0.00" end="30.00" id="ood2_2" nVehContrib="8" flow="960.00" occupancy="14.91" speed="11.18" harmonicMeanSpeed="11.18" length="6.25" nVehEntered="8"/>
    <interval begin="0.00" end="30.00" id="ood3_0" nVehContrib="4" flow="480.00" occupancy="8.94" speed="11.18" harmonicMeanSpeed="11.18" length="7.50" nVehEntered="4"/>
    <interval begin="0.00" end="30.00" id="ood3_1" nVehContrib="1" flow="120.00" occupancy="2.68" speed="11.18" harmonicMeanSpeed="11.18" length="9.00" nVehEntered="1"/>
    <interval begin="0.00" end="30.00" id="ood3_2" nVehContrib="8" flow="960.00" occupancy="17.59" speed="11.18" harmonicMeanSpeed="11.18" length="7.38" nVehEntered="8"/>
    <interval begin="0.00" end="30.00" id="ood4_0" nVehContrib="4" flow="480.00" occupancy="8.94" speed="11.18" harmonicMeanSpeed="11.18" length="7.50" nVehEntered="4"/>
    <interval begin="0.00" end="30.00" id="ood4_1" nVehContrib="4" flow="480.00" occupancy="10.14" speed="11.18" harmonicMeanSpeed="11.18" length="8.50" nVehEntered="4"/>
    <interval begin="0.00" end="30.00" id="ood4_2" nVehContrib="6" flow="720.00" occupancy="12.82" speed="11.18" harmonicMeanSpeed="11.18" length="7.17" nVehEntered="6"/>
    <interval begin="0.00" end="30.00" id="oood1_0" nVehContrib="8" flow="960.00" occupancy="17.38" speed="11.12" harmonicMeanSpeed="11.12" length="7.25" nVehEntered="8"/>
    <interval begin="0.00" end="30.00" id="oood1_1" nVehContrib="3" flow="360.00" occupancy="6.87" speed="11.16" harmonicMeanSpeed="11.16" length="7.67" nVehEntered="3"/>
    <interval begin="0.00" end="30.00" id="oood1_2" nVehContrib="5" flow="600.00" occupancy="11.63" speed="11.18" harmonicMeanSpeed="11.18" length="7.80" nVehEntered="5"/>
    <interval begin="0.00" end="30.00" id="oood2_0" nVehContrib="4" flow="480.00" occupancy="8.65" speed="11.18" harmonicMeanSpeed="11.18" length="7.25" nVehEntered="4"/>
    <interval begin="0.00" end="30.00" id="oood2_1" nVehContrib="2" flow="240.00" occupancy="4.17" speed="11.18" harmonicMeanSpeed="11.18" length="7.00" nVehEntered="2"/>
    <interval begin="0.00" end="30.00" id="oood2_2" nVehContrib="9" flow="1080.00" occupancy="18.76" speed="11.16" harmonicMeanSpeed="11.16" length="6.56" nVehEntered="10"/>
    <interval begin="0.00" end="30.00" id="oood3_0" nVehContrib="5" flow="600.00" occupancy="10.73" speed="11.18" harmonicMeanSpeed="11.18" length="7.20" nVehEntered="5"/>
    <interval begin="0.00" end="30.00" id="oood3_1" nVehContrib="1" flow="120.00" occupancy="2.68" speed="11.18" harmonicMeanSpeed="11.18" length="9.00" nVehEntered="1"/>
    <interval begin="0.00" end="30.00" id="oood3_2" nVehContrib="9" flow="1080.00" occupancy="19.40" speed="11.17" harmonicMeanSpeed="11.17" length="7.22" nVehEntered="9"/>
    <interval begin="0.00" end="30.00" id="oood4_0" nVehContrib="4" flow="480.00" occupancy="8.95" speed="11.17" harmonicMeanSpeed="11.17" length="7.50" nVehEntered="4"/>
    <interval begin="0.00" end="30.00" id="oood4_1" nVehContrib="4" flow="480.00" occupancy="10.14" speed="11.18" harmonicMeanSpeed="11.18" length="8.50" nVehEntered="4"/>
    <interval begin="0.00" end="30.00" id="oood4_2" nVehContrib="7" flow="840.00" occupancy="15.24" speed="11.16" harmonicMeanSpeed="11.16" length="7.29" nVehEntered="7"/>
    <interval begin="0.00" end="30.00" id="ooood1_0" nVehContrib="6" flow="720.00" occupancy="3.61" speed="41.55" harmonicMeanSpeed="40.37" length="7.50" nVehEntered="6"/>
    <interval begin="0.00" end="30.00" id="ooood1_1" nVehContrib="10" flow="1200.00" occupancy="6.02" speed="43.21" harmonicMeanSpeed="41.69" length="7.80" nVehEntered="10"/>
    <interval begin="0.00" end="30.00" id="ooood1_2" nVehContrib="5" flow="600.00" occupancy="3.01" speed="39.89" harmonicMeanSpeed="37.07" length="7.20" nVehEntered="5"/>
    <interval begin="0.00" end="30.00" id="ooood2_0" nVehContrib="7" flow="840.00" occupancy="4.21" speed="36.41" harmonicMeanSpeed="35.18" length="6.57" nVehEntered="7"/>
    <interval begin="0.00" end="30.00" id="ooood2_1" nVehContrib="7" flow="840.00" occupancy="4.21" speed="34.03" harmonicMeanSpeed="33.48" length="6.14" nVehEntered="7"/>
    <interval begin="0.00" end="30.00" id="ooood2_2" nVehContrib="7" flow="840.00" occupancy="4.21" speed="41.16" harmonicMeanSpeed="39.50" length="7.43" nVehEntered="7"/>
    <interval begin="0.00" end="30.00" id="ooood3_0" nVehContrib="6" flow="720.00" occupancy="3.61" speed="42.47" harmonicMeanSpeed="42.09" length="7.67" nVehEntered="6"/>
    <interval begin="0.00" end="30.00" id="ooood3_1" nVehContrib="9" flow="1080.00" occupancy="5.42" speed="42.47" harmonicMeanSpeed="41.28" length="7.67" nVehEntered="9"/>
    <interval begin="0.00" end="30.00" id="ooood3_2" nVehContrib="6" flow="720.00" occupancy="3.61" speed="37.86" harmonicMeanSpeed="36.04" length="6.83" nVehEntered="6"/>
    <interval begin="0.00" end="30.00" id="ooood4_0" nVehContrib="7" flow="840.00" occupancy="4.21" speed="45.90" harmonicMeanSpeed="45.04" length="8.29" nVehEntered="7"/>
    <interval begin="0.00" end="30.00" id="ooood4_1" nVehContrib="11" flow="1320.00" occupancy="6.62" speed="38.28" harmonicMeanSpeed="36.89" length="6.91" nVehEntered="11"/>
    <interval begin="0.00" end="30.00" id="ooood4_2" nVehContrib="4" flow="480.00" occupancy="2.41" speed="45.71" harmonicMeanSpeed="45.22" length="8.25" nVehEntered="4"/>
    <interval begin="30.00" end="60.00" id="d1_0" nVehContrib="7" flow="840.00" occupancy="14.91" speed="11.18" harmonicMeanSpeed="11.18" length="7.14" nVehEntered="7"/>
    <interval begin="30.00" end="60.00" id="d1_1" nVehContrib="5" flow="600.00" occupancy="11.57" speed="10.54" harmonicMeanSpeed="10.35" length="7.20" nVehEntered="5"/>
    <interval begin="30.00" end="60.00" id="d1_2" nVehContrib="7" flow="840.00" occupancy="54.73" speed="7.39" harmonicMeanSpeed="3.16" length="6.86" nVehEntered="8"/>
    <interval begin="30.00" end="60.00" id="d2_0" nVehContrib="6" flow="720.00" occupancy="11.93" speed="11.18" harmonicMeanSpeed="11.18" length="6.67" nVehEntered="6"/>
    <interval begin="30.00" end="60.00" id="d2_1" nVehContrib="3" flow="360.00" occupancy="8.32" speed="11.18" harmonicMeanSpeed="11.18" length="7.00" nVehEntered="4"/>
    <interval begin="30.00" end="60.00" id="d2_2" nVehContrib="9" flow="1080.00" occupancy="65.42" speed="6.24" harmonicMeanSpeed="4.60" length="6.67" nVehEntered="10"/>
    <interval begin="30.00" end="60.00" id="d3_0" nVehContrib="5" flow="600.00" occupancy="9.54" speed="11.18" harmonicMeanSpeed="11.18" length="6.40" nVehEntered="5"/>
    <interval begin="30.00" end="60.00" id="d3_1" nVehContrib="5" flow="600.00" occupancy="11.07" speed="11.15" harmonicMeanSpeed="11.15" length="7.40" nVehEntered="5"/>
    <interval begin="30.00" end="60.00" id="d3_2" nVehContrib="10" flow="1200.00" occupancy="71.96" speed="6.79" harmonicMeanSpeed="3.87" length="7.00" nVehEntered="11"/>
    <interval begin="30.00" end="60.00" id="d4_0" nVehContrib="9" flow="1080.00" occupancy="17.65" speed="11.13" harmonicMeanSpeed="11.13" length="6.56" nVehEntered="9"/>
    <interval begin="30.00" end="60.00" id="d4_1" nVehContrib="0" flow="0.00" occupancy="0.00" speed="-1.00" harmonicMeanSpeed="-1.00" length="-1.00" nVehEntered="0"/>
    <interval begin="30.00" end="60.00" id="d4_2" nVehContrib="10" flow="1200.00" occupancy="68.74" speed="7.20" harmonicMeanSpeed="3.16" length="7.40" nVehEntered="9"/>
    <interval begin="30.00" end="60.00" id="od1_0" nVehContrib="6" flow="720.00" occupancy="12.84" speed="11.18" harmonicMeanSpeed="11.18" length="6.83" nVehEntered="6"/>
    <interval begin="30.00" end="60.00" id="od1_1" nVehContrib="5" flow="600.00" occupancy="10.73" speed="11.18" harmonicMeanSpeed="11.18" length="7.20" nVehEntered="5"/>
    <interval begin="30.00" end="60.00" id="od1_2" nVehContrib="10" flow="1200.00" occupancy="30.81" speed="9.93" harmonicMeanSpeed="7.08" length="6.80" nVehEntered="10"/>
    <interval begin="30.00" end="60.00" id="od2_0" nVehContrib="7" flow="840.00" occupancy="14.61" speed="11.18" harmonicMeanSpeed="11.18" length="7.00" nVehEntered="7"/>
    <interval begin="30.00" end="60.00" id="od2_1" nVehContrib="4" flow="480.00" occupancy="7.47" speed="11.18" harmonicMeanSpeed="11.18" length="7.00" nVehEntered="3"/>
    <interval begin="30.00" end="60.00" id="od2_2" nVehContrib="10" flow="1200.00" occupancy="25.78" speed="9.43" harmonicMeanSpeed="9.01" length="7.00" nVehEntered="10"/>
    <interval begin="30.00" end="60.00" id="od3_0" nVehContrib="5" flow="600.00" occupancy="9.54" speed="11.18" harmonicMeanSpeed="11.18" length="6.40" nVehEntered="5"/>
    <interval begin="30.00" end="60.00" id="od3_1" nVehContrib="6" flow="720.00" occupancy="13.71" speed="11.18" harmonicMeanSpeed="11.18" length="7.67" nVehEntered="6"/>
    <interval begin="30.00" end="60.00" id="od3_2" nVehContrib="12" flow="1440.00" occupancy="27.02" speed="9.53" harmonicMeanSpeed="9.15" length="6.92" nVehEntered="11"/>
    <interval begin="30.00" end="60.00" id="od4_0" nVehContrib="10" flow="1200.00" occupancy="19.68" speed="11.18" harmonicMeanSpeed="11.18" length="6.60" nVehEntered="10"/>
    <interval begin="30.00" end="60.00" id="od4_1" nVehContrib="1" flow="120.00" occupancy="1.49" speed="11.18" harmonicMeanSpeed="11.18" length="5.00" nVehEntered="1"/>
    <interval begin="30.00" end="60.00" id="od4_2" nVehContrib="11" flow="1320.00" occupancy="28.14" speed="9.95" harmonicMeanSpeed="9.26" length="7.27" nVehEntered="11"/>
    <interval begin="30.00" end="60.00" id="ood1_0" nVehContrib="5" flow="600.00" occupancy="12.51" speed="11.18" harmonicMeanSpeed="11.18" length="7.60" nVehEntered="5"/>
    <interval begin="30.00" end="60.00" id="ood1_1" nVehContrib="6" flow="720.00" occupancy="12.82" speed="11.18" harmonicMeanSpeed="11.18" length="7.17" nVehEntered="6"/>
    <interval begin="30.00" end="60.00" id="ood1_2" nVehContrib="10" flow="1200.00" occupancy="21.65" speed="11.18" harmonicMeanSpeed="11.18" length="6.80" nVehEntered="11"/>
    <interval begin="30.00" end="60.00" id="ood2_0" nVehContrib="8" flow="960.00" occupancy="18.30" speed="11.18" harmonicMeanSpeed="11.18" length="7.25" nVehEntered="9"/>
    <interval begin="30.00" end="60.00" id="ood2_1" nVehContrib="3" flow="360.00" occupancy="6.56" speed="11.18" harmonicMeanSpeed="11.18" length="7.33" nVehEntered="3"/>
    <interval begin="30.00" end="60.00" id="ood2_2" nVehContrib="10" flow="1200.00" occupancy="22.33" speed="10.98" harmonicMeanSpeed="10.97" length="7.00" nVehEntered="11"/>
    <interval begin="30.00" end="60.00" id="ood3_0" nVehContrib="5" flow="600.00" occupancy="9.54" speed="11.18" harmonicMeanSpeed="11.18" length="6.40" nVehEntered="5"/>
    <interval begin="30.00" end="60.00" id="ood3_1" nVehContrib="6" flow="720.00" occupancy="12.15" speed="14.71" harmonicMeanSpeed="12.55" length="7.67" nVehEntered="6"/>
    <interval begin="30.00" end="60.00" id="ood3_2" nVehContrib="11" flow="1320.00" occupancy="25.08" speed="11.07" harmonicMeanSpeed="11.07" length="6.64" nVehEntered="13"/>
    <interval begin="30.00" end="60.00" id="ood4_0" nVehContrib="10" flow="1200.00" occupancy="19.68" speed="11.18" harmonicMeanSpeed="11.18" length="6.60" nVehEntered="10"/>
    <interval begin="30.00" end="60.00" id="ood4_1" nVehContrib="1" flow="120.00" occupancy="1.49" speed="11.18" harmonicMeanSpeed="11.18" length="5.00" nVehEntered="1"/>
    <interval begin="30.00" end="60.00" id="ood4_2" nVehContrib="11" flow="1320.00" occupancy="23.80" speed="11.08" harmonicMeanSpeed="11.08" length="7.18" nVehEntered="11"/>
    <interval begin="30.00" end="60.00" id="oood1_0" nVehContrib="5" flow="600.00" occupancy="12.75" speed="11.10" harmonicMeanSpeed="11.10" length="7.40" nVehEntered="6"/>
    <interval begin="30.00" end="60.00" id="oood1_1" nVehContrib="7" flow="840.00" occupancy="15.55" speed="11.15" harmonicMeanSpeed="11.15" length="7.43" nVehEntered="8"/>
    <interval begin="30.00" end="60.00" id="oood1_2" nVehContrib="10" flow="1200.00" occupancy="19.49" speed="11.11" harmonicMeanSpeed="11.11" length="6.50" nVehEntered="10"/>
    <interval begin="30.00" end="60.00" id="oood2_0" nVehContrib="10" flow="1200.00" occupancy="20.93" speed="11.15" harmonicMeanSpeed="11.15" length="7.00" nVehEntered="10"/>
    <interval begin="30.00" end="60.00" id="oood2_1" nVehContrib="3" flow="360.00" occupancy="6.59" speed="11.13" harmonicMeanSpeed="11.13" length="7.33" nVehEntered="3"/>
    <interval begin="30.00" end="60.00" id="oood2_2" nVehContrib="10" flow="1200.00" occupancy="18.57" speed="11.16" harmonicMeanSpeed="11.16" length="6.60" nVehEntered="9"/>
    <interval begin="30.00" end="60.00" id="oood3_0" nVehContrib="5" flow="600.00" occupancy="9.24" speed="11.18" harmonicMeanSpeed="11.18" length="6.20" nVehEntered="5"/>
    <interval begin="30.00" end="60.00" id="oood3_1" nVehContrib="6" flow="720.00" occupancy="14.41" speed="11.17" harmonicMeanSpeed="11.17" length="7.67" nVehEntered="7"/>
    <interval begin="30.00" end="60.00" id="oood3_2" nVehContrib="11" flow="1320.00" occupancy="22.71" speed="10.99" harmonicMeanSpeed="10.99" length="6.82" nVehEntered="11"/>
    <interval begin="30.00" end="60.00" id="oood4_0" nVehContrib="11" flow="1320.00" occupancy="22.04" speed="11.04" harmonicMeanSpeed="11.03" length="6.64" nVehEntered="11"/>
    <interval begin="30.00" end="60.00" id="oood4_1" nVehContrib="1" flow="120.00" occupancy="3.13" speed="11.12" harmonicMeanSpeed="11.12" length="5.00" nVehEntered="3"/>
    <interval begin="30.00" end="60.00" id="oood4_2" nVehContrib="10" flow="1200.00" occupancy="21.27" speed="11.13" harmonicMeanSpeed="11.12" length="7.10" nVehEntered="10"/>
    <interval begin="30.00" end="60.00" id="ooood1_0" nVehContrib="6" flow="720.00" occupancy="3.61" speed="36.93" harmonicMeanSpeed="35.15" length="6.67" nVehEntered="6"/>
    <interval begin="30.00" end="60.00" id="ooood1_1" nVehContrib="8" flow="960.00" occupancy="4.81" speed="37.40" harmonicMeanSpeed="35.99" length="6.75" nVehEntered="8"/>
    <interval begin="30.00" end="60.00" id="ooood1_2" nVehContrib="10" flow="1200.00" occupancy="6.02" speed="38.23" harmonicMeanSpeed="36.34" length="6.90" nVehEntered="10"/>
    <interval begin="30.00" end="60.00" id="ooood2_0" nVehContrib="5" flow="600.00" occupancy="3.01" speed="33.24" harmonicMeanSpeed="31.56" length="6.00" nVehEntered="5"/>
    <interval begin="30.00" end="60.00" id="ooood2_1" nVehContrib="11" flow="1320.00" occupancy="6.62" speed="39.28" harmonicMeanSpeed="38.31" length="7.09" nVehEntered="11"/>
    <interval begin="30.00" end="60.00" id="ooood2_2" nVehContrib="7" flow="840.00" occupancy="4.21" speed="39.57" harmonicMeanSpeed="38.12" length="7.14" nVehEntered="7"/>
    <interval begin="30.00" end="60.00" id="ooood3_0" nVehContrib="8" flow="960.00" occupancy="4.81" speed="35.32" harmonicMeanSpeed="33.38" length="6.38" nVehEntered="8"/>
    <interval begin="30.00" end="60.00" id="ooood3_1" nVehContrib="9" flow="1080.00" occupancy="5.42" speed="39.40" harmonicMeanSpeed="37.76" length="7.11" nVehEntered="9"/>
    <interval begin="30.00" end="60.00" id="ooood3_2" nVehContrib="7" flow="840.00" occupancy="4.21" speed="41.95" harmonicMeanSpeed="39.28" length="7.57" nVehEntered="7"/>
    <interval begin="30.00" end="60.00" id="ooood4_0" nVehContrib="11" flow="1320.00" occupancy="6.62" speed="37.27" harmonicMeanSpeed="36.27" length="6.73" nVehEntered="11"/>
    <interval begin="30.00" end="60.00" id="ooood4_1" nVehContrib="2" flow="240.00" occupancy="1.20" speed="41.55" harmonicMeanSpeed="39.89" length="7.50" nVehEntered="2"/>
    <interval begin="30.00" end="60.00" id="ooood4_2" nVehContrib="10" flow="1200.00" occupancy="6.02" speed="34.35" harmonicMeanSpeed="33.50" length="6.20" nVehEntered="10"/>
    <interval begin="60.00" end="90.00" id="d1_0" nVehContrib="9" flow="1080.00" occupancy="27.08" speed="9.58" harmonicMeanSpeed="7.82" length="7.11" nVehEntered="9"/>
    <interval begin="60.00" end="90.00" id="d1_1" nVehContrib="6" flow="720.00" occupancy="42.18" speed="8.24" harmonicMeanSpeed="4.02" length="7.83" nVehEntered="6"/>
    <interval begin="60.00" end="90.00" id="d1_2" nVehContrib="7" flow="840.00" occupancy="38.41" speed="6.40" harmonicMeanSpeed="4.66" length="6.57" nVehEntered="7"/>
    <interval begin="60.00" end="90.00" id="d2_0" nVehContrib="9" flow="1080.00" occupancy="18.78" speed="11.18" harmonicMeanSpeed="11.18" length="7.00" nVehEntered="9"/>
    <interval begin="60.00" end="90.00" id="d2_1" nVehContrib="5" flow="600.00" occupancy="20.73" speed="9.15" harmonicMeanSpeed="4.70" length="7.00" nVehEntered="4"/>
    <interval begin="60.00" end="90.00" id="d2_2" nVehContrib="6" flow="720.00" occupancy="79.50" speed="5.19" harmonicMeanSpeed="2.23" length="6.83" nVehEntered="6"/>
    <interval begin="60.00" end="90.00" id="d3_0" nVehContrib="10" flow="1200.00" occupancy="25.38" speed="10.19" harmonicMeanSpeed="8.14" length="6.60" nVehEntered="10"/>
    <interval begin="60.00" end="90.00" id="d3_1" nVehContrib="2" flow="240.00" occupancy="6.00" speed="10.12" harmonicMeanSpeed="10.00" length="9.00" nVehEntered="2"/>
    <interval begin="60.00" end="90.00" id="d3_2" nVehContrib="7" flow="840.00" occupancy="79.52" speed="5.07" harmonicMeanSpeed="1.86" length="7.00" nVehEntered="7"/>
    <interval begin="60.00" end="90.00" id="d4_0" nVehContrib="9" flow="1080.00" occupancy="17.89" speed="11.18" harmonicMeanSpeed="11.18" length="6.67" nVehEntered="9"/>
    <interval begin="60.00" end="90.00" id="d4_1" nVehContrib="4" flow="480.00" occupancy="8.35" speed="11.18" harmonicMeanSpeed="11.18" length="7.00" nVehEntered="4"/>
    <interval begin="60.00" end="90.00" id="d4_2" nVehContrib="6" flow="720.00" occupancy="64.39" speed="5.07" harmonicMeanSpeed="2.04" length="7.00" nVehEntered="7"/>
    <interval begin="60.00" end="90.00" id="od1_0" nVehContrib="10" flow="1200.00" occupancy="18.26" speed="11.18" harmonicMeanSpeed="11.18" length="6.90" nVehEntered="9"/>
    <interval begin="60.00" end="90.00" id="od1_1" nVehContrib="6" flow="720.00" occupancy="16.34" speed="9.82" harmonicMeanSpeed="9.14" length="7.83" nVehEntered="6"/>
    <interval begin="60.00" end="90.00" id="od1_2" nVehContrib="7" flow="840.00" occupancy="26.24" speed="8.65" harmonicMeanSpeed="6.42" length="7.00" nVehEntered="8"/>
    <interval begin="60.00" end="90.00" id="od2_0" nVehContrib="9" flow="1080.00" occupancy="18.49" speed="11.18" harmonicMeanSpeed="11.18" length="6.89" nVehEntered="9"/>
    <interval begin="60.00" end="90.00" id="od2_1" nVehContrib="4" flow="480.00" occupancy="8.50" speed="11.03" harmonicMeanSpeed="11.03" length="7.00" nVehEntered="4"/>
    <interval begin="60.00" end="90.00" id="od2_2" nVehContrib="7" flow="840.00" occupancy="69.68" speed="8.07" harmonicMeanSpeed="4.51" length="6.71" nVehEntered="8"/>
    <interval begin="60.00" end="90.00" id="od3_0" nVehContrib="10" flow="1200.00" occupancy="19.71" speed="11.17" harmonicMeanSpeed="11.17" length="6.60" nVehEntered="10"/>
    <interval begin="60.00" end="90.00" id="od3_1" nVehContrib="1" flow="120.00" occupancy="2.68" speed="11.18" harmonicMeanSpeed="11.18" length="9.00" nVehEntered="1"/>
    <interval begin="60.00" end="90.00" id="od3_2" nVehContrib="7" flow="840.00" occupancy="71.35" speed="4.89" harmonicMeanSpeed="2.21" length="7.14" nVehEntered="7"/>
    <interval begin="60.00" end="90.00" id="od4_0" nVehContrib="8" flow="960.00" occupancy="16.25" speed="11.18" harmonicMeanSpeed="11.18" length="6.63" nVehEntered="9"/>
    <interval begin="60.00" end="90.00" id="od4_1" nVehContrib="4" flow="480.00" occupancy="8.35" speed="11.18" harmonicMeanSpeed="11.18" length="7.00" nVehEntered="4"/>
    <interval begin="60.00" end="90.00" id="od4_2" nVehContrib="7" flow="840.00" occupancy="61.47" speed="7.66" harmonicMeanSpeed="2.60" length="6.57" nVehEntered="8"/>
    <interval begin="60.00" end="90.00" id="ood1_0" nVehContrib="10" flow="1200.00" occupancy="18.80" speed="11.18" harmonicMeanSpeed="11.18" length="6.90" nVehEntered="9"/>
    <interval begin="60.00" end="90.00" id="ood1_1" nVehContrib="6" flow="720.00" occupancy="14.31" speed="11.18" harmonicMeanSpeed="11.18" length="8.00" nVehEntered="6"/>
    <interval begin="60.00" end="90.00" id="ood1_2" nVehContrib="8" flow="960.00" occupancy="17.60" speed="10.98" harmonicMeanSpeed="10.96" length="7.00" nVehEntered="8"/>
    <interval begin="60.00" end="90.00" id="ood2_0" nVehContrib="8" flow="960.00" occupancy="14.80" speed="11.18" harmonicMeanSpeed="11.18" length="6.63" nVehEntered="7"/>
    <interval begin="60.00" end="90.00" id="ood2_1" nVehContrib="4" flow="480.00" occupancy="8.35" speed="11.18" harmonicMeanSpeed="11.18" length="7.00" nVehEntered="4"/>
    <interval begin="60.00" end="90.00" id="ood2_2" nVehContrib="9" flow="1080.00" occupancy="19.16" speed="9.96" harmonicMeanSpeed="9.60" length="6.56" nVehEntered="8"/>
    <interval begin="60.00" end="90.00" id="ood3_0" nVehContrib="10" flow="1200.00" occupancy="19.68" speed="11.18" harmonicMeanSpeed="11.18" length="6.60" nVehEntered="10"/>
    <interval begin="60.00" end="90.00" id="ood3_1" nVehContrib="2" flow="240.00" occupancy="4.17" speed="11.18" harmonicMeanSpeed="11.18" length="7.00" nVehEntered="2"/>
    <interval begin="60.00" end="90.00" id="ood3_2" nVehContrib="8" flow="960.00" occupancy="58.68" speed="7.21" harmonicMeanSpeed="3.86" length="7.00" nVehEntered="8"/>
    <interval begin="60.00" end="90.00" id="ood4_0" nVehContrib="9" flow="1080.00" occupancy="17.29" speed="11.18" harmonicMeanSpeed="11.18" length="6.44" nVehEntered="9"/>
    <interval begin="60.00" end="90.00" id="ood4_1" nVehContrib="4" flow="480.00" occupancy="7.64" speed="12.37" harmonicMeanSpeed="12.08" length="7.00" nVehEntered="4"/>
    <interval begin="60.00" end="90.00" id="ood4_2" nVehContrib="9" flow="1080.00" occupancy="21.26" speed="9.90" harmonicMeanSpeed="9.61" length="6.44" nVehEntered="10"/>
    <interval begin="60.00" end="90.00" id="oood1_0" nVehContrib="10" flow="1200.00" occupancy="19.33" speed="10.96" harmonicMeanSpeed="10.95" length="6.90" nVehEntered="9"/>
    <interval begin="60.00" end="90.00" id="oood1_1" nVehContrib="4" flow="480.00" occupancy="10.01" speed="11.10" harmonicMeanSpeed="11.09" length="7.75" nVehEntered="4"/>
    <interval begin="60.00" end="90.00" id="oood1_2" nVehContrib="9" flow="1080.00" occupancy="19.68" speed="11.37" harmonicMeanSpeed="11.34" length="7.44" nVehEntered="9"/>
    <interval begin="60.00" end="90.00" id="oood2_0" nVehContrib="6" flow="720.00" occupancy="12.99" speed="11.14" harmonicMeanSpeed="11.14" length="6.83" nVehEntered="7"/>
    <interval begin="60.00" end="90.00" id="oood2_1" nVehContrib="3" flow="360.00" occupancy="6.54" speed="11.18" harmonicMeanSpeed="11.18" length="6.33" nVehEntered="4"/>
    <interval begin="60.00" end="90.00" id="oood2_2" nVehContrib="11" flow="1320.00" occupancy="24.85" speed="10.85" harmonicMeanSpeed="10.72" length="7.27" nVehEntered="11"/>
    <interval begin="60.00" end="90.00" id="oood3_0" nVehContrib="9" flow="1080.00" occupancy="18.22" speed="11.15" harmonicMeanSpeed="11.15" length="6.78" nVehEntered="9"/>
    <interval begin="60.00" end="90.00" id="oood3_1" nVehContrib="2" flow="240.00" occupancy="3.50" speed="11.13" harmonicMeanSpeed="11.13" length="7.00" nVehEntered="1"/>
    <interval begin="60.00" end="90.00" id="oood3_2" nVehContrib="10" flow="1200.00" occupancy="28.45" speed="9.14" harmonicMeanSpeed="8.53" length="6.80" nVehEntered="11"/>
    <interval begin="60.00" end="90.00" id="oood4_0" nVehContrib="9" flow="1080.00" occupancy="17.99" speed="11.12" harmonicMeanSpeed="11.12" length="6.67" nVehEntered="9"/>
    <interval begin="60.00" end="90.00" id="oood4_1" nVehContrib="3" flow="360.00" occupancy="6.33" speed="11.11" harmonicMeanSpeed="11.11" length="6.67" nVehEntered="3"/>
    <interval begin="60.00" end="90.00" id="oood4_2" nVehContrib="11" flow="1320.00" occupancy="21.80" speed="12.55" harmonicMeanSpeed="11.45" length="6.64" nVehEntered="12"/>