<?xml version="1.0" encoding="UTF-8"?>

<!-- generated on 03/26/20 17:48:28 by Eclipse SUMO GUI Version 1.3.1
<configuration xmlns:xsi="http://www.w3.org/2001/XMLSchema-instance" xsi:noNamespaceSchemaLocation="http://sumo.dlr.de/xsd/sumoConfiguration.xsd">

    <input>
        <net-file value="data/lane3.net.xml"/>
        <route-files value="data/icacc+.rou.xml"/>
        <additional-files value="data/icacc+.det.xml"/>
    </input>

    <output>
        <tripinfo-output value="tripinfo.xml"/>
    </output>

    <time>
        <begin value="0"/>
        <step-length value="0.1"/>
    </time>

    <processing>
        <collision.mingap-factor value="0"/>
    </processing>

    <report>
        <verbose value="true"/>
        <no-step-log value="true"/>
    </report>

    <traci_server>
        <remote-port value="11524"/>
    </traci_server>

    <gui_only>
        <start value="true"/>
        <tracker-interval value="0.1"/>
    </gui_only>

</configuration>
-->

<detector xmlns:xsi="http://www.w3.org/2001/XMLSchema-instance" xsi:noNamespaceSchemaLocation="http://sumo.dlr.de/xsd/det_e1_file.xsd">
    <interval begin="0.00" end="30.00" id="d1_0" nVehContrib="0" flow="0.00" occupancy="0.00" speed="-1.00" harmonicMeanSpeed="-1.00" length="-1.00" nVehEntered="0"/>
    <interval begin="0.00" end="30.00" id="d1_1" nVehContrib="5" flow="600.00" occupancy="9.84" speed="11.18" harmonicMeanSpeed="11.18" length="6.60" nVehEntered="5"/>
    <interval begin="0.00" end="30.00" id="d1_2" nVehContrib="4" flow="480.00" occupancy="14.74" speed="10.87" harmonicMeanSpeed="10.85" length="7.50" nVehEntered="5"/>
    <interval begin="0.00" end="30.00" id="d2_0" nVehContrib="3" flow="360.00" occupancy="6.86" speed="11.18" harmonicMeanSpeed="11.18" length="7.67" nVehEntered="3"/>
    <interval begin="0.00" end="30.00" id="d2_1" nVehContrib="4" flow="480.00" occupancy="7.45" speed="11.18" harmonicMeanSpeed="11.18" length="6.25" nVehEntered="4"/>
    <interval begin="0.00" end="30.00" id="d2_2" nVehContrib="6" flow="720.00" occupancy="13.12" speed="11.04" harmonicMeanSpeed="11.03" length="7.17" nVehEntered="7"/>
    <interval begin="0.00" end="30.00" id="d3_0" nVehContrib="5" flow="600.00" occupancy="14.08" speed="9.36" harmonicMeanSpeed="7.18" length="6.60" nVehEntered="5"/>
    <interval begin="0.00" end="30.00" id="d3_1" nVehContrib="1" flow="120.00" occupancy="2.09" speed="11.18" harmonicMeanSpeed="11.18" length="7.00" nVehEntered="1"/>
    <interval begin="0.00" end="30.00" id="d3_2" nVehContrib="5" flow="600.00" occupancy="10.52" speed="10.88" harmonicMeanSpeed="10.85" length="6.40" nVehEntered="6"/>
    <interval begin="0.00" end="30.00" id="d4_0" nVehContrib="4" flow="480.00" occupancy="6.86" speed="11.18" harmonicMeanSpeed="11.18" length="5.75" nVehEntered="4"/>
    <interval begin="0.00" end="30.00" id="d4_1" nVehContrib="5" flow="600.00" occupancy="10.51" speed="11.10" harmonicMeanSpeed="11.09" length="7.00" nVehEntered="5"/>
    <interval begin="0.00" end="30.00" id="d4_2" nVehContrib="5" flow="600.00" occupancy="11.50" speed="10.85" harmonicMeanSpeed="10.80" length="7.40" nVehEntered="5"/>
    <interval begin="0.00" end="30.00" id="od1_0" nVehContrib="0" flow="0.00" occupancy="0.00" speed="-1.00" harmonicMeanSpeed="-1.00" length="-1.00" nVehEntered="0"/>
    <interval begin="0.00" end="30.00" id="od1_1" nVehContrib="6" flow="720.00" occupancy="11.63" speed="11.18" harmonicMeanSpeed="11.18" length="6.50" nVehEntered="6"/>
    <interval begin="0.00" end="30.00" id="od1_2" nVehContrib="6" flow="720.00" occupancy="13.16" speed="11.13" harmonicMeanSpeed="11.13" length="7.33" nVehEntered="6"/>
    <interval begin="0.00" end="30.00" id="od2_0" nVehContrib="4" flow="480.00" occupancy="9.24" speed="11.18" harmonicMeanSpeed="11.18" length="7.75" nVehEntered="4"/>
    <interval begin="0.00" end="30.00" id="od2_1" nVehContrib="5" flow="600.00" occupancy="9.54" speed="11.18" harmonicMeanSpeed="11.18" length="6.40" nVehEntered="5"/>
    <interval begin="0.00" end="30.00" id="od2_2" nVehContrib="7" flow="840.00" occupancy="14.53" speed="11.18" harmonicMeanSpeed="11.18" length="6.86" nVehEntered="8"/>
    <interval begin="0.00" end="30.00" id="od3_0" nVehContrib="5" flow="600.00" occupancy="9.84" speed="11.18" harmonicMeanSpeed="11.18" length="6.60" nVehEntered="5"/>
    <interval begin="0.00" end="30.00" id="od3_1" nVehContrib="1" flow="120.00" occupancy="3.12" speed="11.18" harmonicMeanSpeed="11.18" length="7.00" nVehEntered="2"/>
    <interval begin="0.00" end="30.00" id="od3_2" nVehContrib="6" flow="720.00" occupancy="11.87" speed="10.75" harmonicMeanSpeed="10.65" length="6.33" nVehEntered="6"/>
    <interval begin="0.00" end="30.00" id="od4_0" nVehContrib="5" flow="600.00" occupancy="8.94" speed="11.18" harmonicMeanSpeed="11.18" length="6.00" nVehEntered="5"/>
    <interval begin="0.00" end="30.00" id="od4_1" nVehContrib="5" flow="600.00" occupancy="10.44" speed="11.18" harmonicMeanSpeed="11.18" length="7.00" nVehEntered="5"/>
    <interval begin="0.00" end="30.00" id="od4_2" nVehContrib="5" flow="600.00" occupancy="11.91" speed="11.18" harmonicMeanSpeed="11.18" length="7.40" nVehEntered="6"/>
    <interval begin="0.00" end="30.00" id="ood1_0" nVehContrib="0" flow="0.00" occupancy="0.00" speed="-1.00" harmonicMeanSpeed="-1.00" length="-1.00" nVehEntered="0"/>
    <interval begin="0.00" end="30.00" id="ood1_1" nVehContrib="6" flow="720.00" occupancy="11.63" speed="11.18" harmonicMeanSpeed="11.18" length="6.50" nVehEntered="6"/>
    <interval begin="0.00" end="30.00" id="ood1_2" nVehContrib="7" flow="840.00" occupancy="14.91" speed="11.18" harmonicMeanSpeed="11.18" length="7.14" nVehEntered="7"/>
    <interval begin="0.00" end="30.00" id="ood2_0" nVehContrib="4" flow="480.00" occupancy="9.24" speed="11.18" harmonicMeanSpeed="11.18" length="7.75" nVehEntered="4"/>
    <interval begin="0.00" end="30.00" id="ood2_1" nVehContrib="5" flow="600.00" occupancy="9.54" speed="11.18" harmonicMeanSpeed="11.18" length="6.40" nVehEntered="5"/>
    <interval begin="0.00" end="30.00" id="ood2_2" nVehContrib="9" flow="1080.00" occupancy="18.49" speed="11.18" harmonicMeanSpeed="11.18" length="6.89" nVehEntered="9"/>
    <interval begin="0.00" end="30.00" id="ood3_0" nVehContrib="5" flow="600.00" occupancy="9.90" speed="11.10" harmonicMeanSpeed="11.10" length="6.60" nVehEntered="5"/>
    <interval begin="0.00" end="30.00" id="ood3_1" nVehContrib="2" flow="240.00" occupancy="4.77" speed="11.18" harmonicMeanSpeed="11.18" length="8.00" nVehEntered="2"/>
    <interval begin="0.00" end="30.00" id="ood3_2" nVehContrib="7" flow="840.00" occupancy="13.12" speed="11.18" harmonicMeanSpeed="11.18" length="6.29" nVehEntered="7"/>
    <interval begin="0.00" end="30.00" id="ood4_0" nVehContrib="6" flow="720.00" occupancy="10.44" speed="11.18" harmonicMeanSpeed="11.18" length="5.83" nVehEntered="6"/>
    <interval begin="0.00" end="30.00" id="ood4_1" nVehContrib="5" flow="600.00" occupancy="10.44" speed="11.18" harmonicMeanSpeed="11.18" length="7.00" nVehEntered="5"/>
    <interval begin="0.00" end="30.00" id="ood4_2" nVehContrib="6" flow="720.00" occupancy="12.82" speed="11.18" harmonicMeanSpeed="11.18" length="7.17" nVehEntered="6"/>
    <interval begin="0.00" end="30.00" id="oood1_0" nVehContrib="0" flow="0.00" occupancy="0.00" speed="-1.00" harmonicMeanSpeed="-1.00" length="-1.00" nVehEntered="0"/>
    <interval begin="0.00" end="30.00" id="oood1_1" nVehContrib="6" flow="720.00" occupancy="11.63" speed="11.18" harmonicMeanSpeed="11.18" length="6.50" nVehEntered="6"/>
    <interval begin="0.00" end="30.00" id="oood1_2" nVehContrib="9" flow="1080.00" occupancy="18.88" speed="11.14" harmonicMeanSpeed="11.13" length="7.00" nVehEntered="9"/>
    <interval begin="0.00" end="30.00" id="oood2_0" nVehContrib="4" flow="480.00" occupancy="9.24" speed="11.18" harmonicMeanSpeed="11.18" length="7.75" nVehEntered="4"/>
    <interval begin="0.00" end="30.00" id="oood2_1" nVehContrib="5" flow="600.00" occupancy="9.56" speed="11.16" harmonicMeanSpeed="11.16" length="6.40" nVehEntered="5"/>
    <interval begin="0.00" end="30.00" id="oood2_2" nVehContrib="10" flow="1200.00" occupancy="22.56" speed="11.18" harmonicMeanSpeed="11.18" length="7.00" nVehEntered="11"/>
    <interval begin="0.00" end="30.00" id="oood3_0" nVehContrib="5" flow="600.00" occupancy="9.84" speed="11.18" harmonicMeanSpeed="11.18" length="6.60" nVehEntered="5"/>
    <interval begin="0.00" end="30.00" id="oood3_1" nVehContrib="3" flow="360.00" occupancy="6.29" speed="11.14" harmonicMeanSpeed="11.14" length="7.00" nVehEntered="3"/>
    <interval begin="0.00" end="30.00" id="oood3_2" nVehContrib="8" flow="960.00" occupancy="15.34" speed="11.08" harmonicMeanSpeed="11.08" length="6.38" nVehEntered="8"/>
    <interval begin="0.00" end="30.00" id="oood4_0" nVehContrib="8" flow="960.00" occupancy="14.31" speed="11.18" harmonicMeanSpeed="11.18" length="6.00" nVehEntered="8"/>
    <interval begin="0.00" end="30.00" id="oood4_1" nVehContrib="5" flow="600.00" occupancy="10.44" speed="11.17" harmonicMeanSpeed="11.17" length="7.00" nVehEntered="5"/>
    <interval begin="0.00" end="30.00" id="oood4_2" nVehContrib="6" flow="720.00" occupancy="12.82" speed="11.18" harmonicMeanSpeed="11.18" length="7.17" nVehEntered="6"/>
    <interval begin="0.00" end="30.00" id="ooood1_0" nVehContrib="5" flow="600.00" occupancy="3.01" speed="35.46" harmonicMeanSpeed="34.17" length="6.40" nVehEntered="5"/>
    <interval begin="0.00" end="30.00" id="ooood1_1" nVehContrib="7" flow="840.00" occupancy="4.21" speed="36.41" harmonicMeanSpeed="35.17" length="6.57" nVehEntered="7"/>
    <interval begin="0.00" end="30.00" id="ooood1_2" nVehContrib="9" flow="1080.00" occupancy="5.42" speed="41.86" harmonicMeanSpeed="40.03" length="7.56" nVehEntered="9"/>
    <interval begin="0.00" end="30.00" id="ooood2_0" nVehContrib="8" flow="960.00" occupancy="4.81" speed="41.55" harmonicMeanSpeed="40.99" length="7.50" nVehEntered="8"/>
    <interval begin="0.00" end="30.00" id="ooood2_1" nVehContrib="8" flow="960.00" occupancy="4.81" speed="34.63" harmonicMeanSpeed="33.57" length="6.25" nVehEntered="8"/>
    <interval begin="0.00" end="30.00" id="ooood2_2" nVehContrib="11" flow="1320.00" occupancy="6.62" speed="42.81" harmonicMeanSpeed="42.13" length="7.73" nVehEntered="11"/>
    <interval begin="0.00" end="30.00" id="ooood3_0" nVehContrib="6" flow="720.00" occupancy="3.61" speed="37.86" harmonicMeanSpeed="35.68" length="6.83" nVehEntered="6"/>
    <interval begin="0.00" end="30.00" id="ooood3_1" nVehContrib="10" flow="1200.00" occupancy="6.02" speed="31.02" harmonicMeanSpeed="30.36" length="5.60" nVehEntered="10"/>
    <interval begin="0.00" end="30.00" id="ooood3_2" nVehContrib="5" flow="600.00" occupancy="3.01" speed="38.78" harmonicMeanSpeed="37.65" length="7.00" nVehEntered="5"/>
    <interval begin="0.00" end="30.00" id="ooood4_0" nVehContrib="12" flow="1440.00" occupancy="7.22" speed="37.40" harmonicMeanSpeed="36.08" length="6.75" nVehEntered="12"/>
    <interval begin="0.00" end="30.00" id="ooood4_1" nVehContrib="4" flow="480.00" occupancy="2.41" speed="36.01" harmonicMeanSpeed="34.39" length="6.50" nVehEntered="4"/>
    <interval begin="0.00" end="30.00" id="ooood4_2" nVehContrib="10" flow="1200.00" occupancy="6.02" speed="37.67" harmonicMeanSpeed="36.28" length="6.80" nVehEntered="10"/>
    <interval begin="30.00" end="60.00" id="d1_0" nVehContrib="4" flow="480.00" occupancy="9.43" speed="10.50" harmonicMeanSpeed="10.34" length="7.50" nVehEntered="4"/>
    <interval begin="30.00" end="60.00" id="d1_1" nVehContrib="7" flow="840.00" occupancy="24.54" speed="8.06" harmonicMeanSpeed="5.71" length="6.43" nVehEntered="7"/>
    <interval begin="30.00" end="60.00" id="d1_2" nVehContrib="9" flow="1080.00" occupancy="77.46" speed="4.28" harmonicMeanSpeed="2.35" length="7.22" nVehEntered="8"/>
    <interval begin="30.00" end="60.00" id="d2_0" nVehContrib="6" flow="720.00" occupancy="14.91" speed="10.71" harmonicMeanSpeed="10.59" length="7.83" nVehEntered="6"/>
    <interval begin="30.00" end="60.00" id="d2_1" nVehContrib="6" flow="720.00" occupancy="29.85" speed="10.40" harmonicMeanSpeed="10.25" length="7.33" nVehEntered="7"/>
    <interval begin="30.00" end="60.00" id="d2_2" nVehContrib="10" flow="1200.00" occupancy="62.55" speed="6.64" harmonicMeanSpeed="3.90" length="6.80" nVehEntered="10"/>
    <interval begin="30.00" end="60.00" id="d3_0" nVehContrib="4" flow="480.00" occupancy="7.16" speed="11.18" harmonicMeanSpeed="11.18" length="6.00" nVehEntered="4"/>
    <interval begin="30.00" end="60.00" id="d3_1" nVehContrib="5" flow="600.00" occupancy="10.59" speed="11.06" harmonicMeanSpeed="11.06" length="7.00" nVehEntered="5"/>
    <interval begin="30.00" end="60.00" id="d3_2" nVehContrib="9" flow="1080.00" occupancy="59.90" speed="6.03" harmonicMeanSpeed="3.02" length="5.89" nVehEntered="8"/>
    <interval begin="30.00" end="60.00" id="d4_0" nVehContrib="9" flow="1080.00" occupancy="40.76" speed="8.35" harmonicMeanSpeed="5.17" length="6.56" nVehEntered="9"/>
    <interval begin="30.00" end="60.00" id="d4_1" nVehContrib="5" flow="600.00" occupancy="25.08" speed="9.11" harmonicMeanSpeed="4.60" length="6.80" nVehEntered="5"/>
    <interval begin="30.00" end="60.00" id="d4_2" nVehContrib="5" flow="600.00" occupancy="47.26" speed="9.24" harmonicMeanSpeed="8.23" length="6.80" nVehEntered="6"/>
    <interval begin="30.00" end="60.00" id="od1_0" nVehContrib="4" flow="480.00" occupancy="10.42" speed="11.18" harmonicMeanSpeed="11.18" length="7.50" nVehEntered="5"/>
    <interval begin="30.00" end="60.00" id="od1_1" nVehContrib="8" flow="960.00" occupancy="22.66" speed="11.13" harmonicMeanSpeed="11.12" length="6.50" nVehEntered="9"/>
    <interval begin="30.00" end="60.00" id="od1_2" nVehContrib="9" flow="1080.00" occupancy="62.93" speed="6.66" harmonicMeanSpeed="3.77" length="7.11" nVehEntered="10"/>
    <interval begin="30.00" end="60.00" id="od2_0" nVehContrib="6" flow="720.00" occupancy="14.01" speed="11.18" harmonicMeanSpeed="11.18" length="7.83" nVehEntered="6"/>
    <interval begin="30.00" end="60.00" id="od2_1" nVehContrib="7" flow="840.00" occupancy="15.53" speed="11.15" harmonicMeanSpeed="11.15" length="7.43" nVehEntered="7"/>
    <interval begin="30.00" end="60.00" id="od2_2" nVehContrib="12" flow="1440.00" occupancy="51.56" speed="7.75" harmonicMeanSpeed="5.27" length="7.00" nVehEntered="11"/>
    <interval begin="30.00" end="60.00" id="od3_0" nVehContrib="4" flow="480.00" occupancy="7.16" speed="11.18" harmonicMeanSpeed="11.18" length="6.00" nVehEntered="4"/>
    <interval begin="30.00" end="60.00" id="od3_1" nVehContrib="5" flow="600.00" occupancy="9.40" speed="11.18" harmonicMeanSpeed="11.18" length="7.00" nVehEntered="4"/>
    <interval begin="30.00" end="60.00" id="od3_2" nVehContrib="10" flow="1200.00" occupancy="24.59" speed="10.13" harmonicMeanSpeed="9.17" length="6.40" nVehEntered="10"/>
    <interval begin="30.00" end="60.00" id="od4_0" nVehContrib="8" flow="960.00" occupancy="18.36" speed="10.25" harmonicMeanSpeed="9.81" length="6.50" nVehEntered="8"/>
    <interval begin="30.00" end="60.00" id="od4_1" nVehContrib="5" flow="600.00" occupancy="11.91" speed="11.18" harmonicMeanSpeed="11.18" length="6.80" nVehEntered="6"/>
    <interval begin="30.00" end="60.00" id="od4_2" nVehContrib="7" flow="840.00" occupancy="45.05" speed="10.92" harmonicMeanSpeed="10.87" length="6.86" nVehEntered="7"/>
    <interval begin="30.00" end="60.00" id="ood1_0" nVehContrib="5" flow="600.00" occupancy="11.33" speed="11.18" harmonicMeanSpeed="11.18" length="7.60" nVehEntered="5"/>
    <interval begin="30.00" end="60.00" id="ood1_1" nVehContrib="9" flow="1080.00" occupancy="19.56" speed="11.18" harmonicMeanSpeed="11.18" length="6.44" nVehEntered="10"/>
    <interval begin="30.00" end="60.00" id="ood1_2" nVehContrib="10" flow="1200.00" occupancy="20.97" speed="10.94" harmonicMeanSpeed="10.92" length="6.90" nVehEntered="10"/>
    <interval begin="30.00" end="60.00" id="ood2_0" nVehContrib="6" flow="720.00" occupancy="14.01" speed="11.18" harmonicMeanSpeed="11.18" length="7.83" nVehEntered="6"/>
    <interval begin="30.00" end="60.00" id="ood2_1" nVehContrib="7" flow="840.00" occupancy="15.50" speed="11.18" harmonicMeanSpeed="11.18" length="7.43" nVehEntered="7"/>
    <interval begin="30.00" end="60.00" id="ood2_2" nVehContrib="12" flow="1440.00" occupancy="46.50" speed="8.44" harmonicMeanSpeed="6.37" length="7.25" nVehEntered="13"/>
    <interval begin="30.00" end="60.00" id="ood3_0" nVehContrib="4" flow="480.00" occupancy="7.16" speed="11.18" harmonicMeanSpeed="11.18" length="6.00" nVehEntered="4"/>
    <interval begin="30.00" end="60.00" id="ood3_1" nVehContrib="5" flow="600.00" occupancy="9.24" speed="11.18" harmonicMeanSpeed="11.18" length="6.20" nVehEntered="5"/>
    <interval begin="30.00" end="60.00" id="ood3_2" nVehContrib="11" flow="1320.00" occupancy="22.48" speed="10.81" harmonicMeanSpeed="10.76" length="6.55" nVehEntered="11"/>
    <interval begin="30.00" end="60.00" id="ood4_0" nVehContrib="7" flow="840.00" occupancy="14.01" speed="11.18" harmonicMeanSpeed="11.18" length="6.71" nVehEntered="7"/>
    <interval begin="30.00" end="60.00" id="ood4_1" nVehContrib="6" flow="720.00" occupancy="12.82" speed="11.18" harmonicMeanSpeed="11.18" length="7.17" nVehEntered="6"/>
    <interval begin="30.00" end="60.00" id="ood4_2" nVehContrib="9" flow="1080.00" occupancy="39.74" speed="10.29" harmonicMeanSpeed="10.11" length="7.33" nVehEntered="10"/>
    <interval begin="30.00" end="60.00" id="oood1_0" nVehContrib="5" flow="600.00" occupancy="11.34" speed="11.17" harmonicMeanSpeed="11.17" length="7.60" nVehEntered="5"/>
    <interval begin="30.00" end="60.00" id="oood1_1" nVehContrib="10" flow="1200.00" occupancy="19.68" speed="11.18" harmonicMeanSpeed="11.18" length="6.60" nVehEntered="10"/>
    <interval begin="30.00" end="60.00" id="oood1_2" nVehContrib="9" flow="1080.00" occupancy="19.39" speed="11.18" harmonicMeanSpeed="11.18" length="7.22" nVehEntered="9"/>
    <interval begin="30.00" end="60.00" id="oood2_0" nVehContrib="6" flow="720.00" occupancy="14.05" speed="11.15" harmonicMeanSpeed="11.15" length="7.83" nVehEntered="6"/>
    <interval begin="30.00" end="60.00" id="oood2_1" nVehContrib="7" flow="840.00" occupancy="15.50" speed="11.18" harmonicMeanSpeed="11.18" length="7.43" nVehEntered="7"/>
    <interval begin="30.00" end="60.00" id="oood2_2" nVehContrib="12" flow="1440.00" occupancy="24.90" speed="10.95" harmonicMeanSpeed="10.93" length="7.00" nVehEntered="12"/>
    <interval begin="30.00" end="60.00" id="oood3_0" nVehContrib="4" flow="480.00" occupancy="8.24" speed="11.18" harmonicMeanSpeed="11.18" length="6.00" nVehEntered="5"/>
    <interval begin="30.00" end="60.00" id="oood3_1" nVehContrib="4" flow="480.00" occupancy="7.76" speed="11.17" harmonicMeanSpeed="11.17" length="6.50" nVehEntered="4"/>
    <interval begin="30.00" end="60.00" id="oood3_2" nVehContrib="10" flow="1200.00" occupancy="20.47" speed="11.16" harmonicMeanSpeed="11.16" length="6.50" nVehEntered="11"/>
    <interval begin="30.00" end="60.00" id="oood4_0" nVehContrib="5" flow="600.00" occupancy="10.15" speed="11.17" harmonicMeanSpeed="11.17" length="6.80" nVehEntered="5"/>
    <interval begin="30.00" end="60.00" id="oood4_1" nVehContrib="7" flow="840.00" occupancy="14.61" speed="11.18" harmonicMeanSpeed="11.18" length="7.00" nVehEntered="7"/>
    <interval begin="30.00" end="60.00" id="oood4_2" nVehContrib="11" flow="1320.00" occupancy="33.03" speed="11.04" harmonicMeanSpeed="11.04" length="7.45" nVehEntered="12"/>
    <interval begin="30.00" end="60.00" id="ooood1_0" nVehContrib="8" flow="960.00" occupancy="4.81" speed="36.70" harmonicMeanSpeed="34.88" length="6.63" nVehEntered="8"/>
    <interval begin="30.00" end="60.00" id="ooood1_1" nVehContrib="7" flow="840.00" occupancy="4.21" speed="39.57" harmonicMeanSpeed="38.04" length="7.14" nVehEntered="7"/>
    <interval begin="30.00" end="60.00" id="ooood1_2" nVehContrib="8" flow="960.00" occupancy="4.81" speed="38.78" harmonicMeanSpeed="36.95" length="7.00" nVehEntered="8"/>
    <interval begin="30.00" end="60.00" id="ooood2_0" nVehContrib="9" flow="1080.00" occupancy="5.42" speed="41.24" harmonicMeanSpeed="39.29" length="7.44" nVehEntered="9"/>
    <interval begin="30.00" end="60.00" id="ooood2_1" nVehContrib="7" flow="840.00" occupancy="4.21" speed="38.78" harmonicMeanSpeed="37.39" length="7.00" nVehEntered="7"/>
    <interval begin="30.00" end="60.00" id="ooood2_2" nVehContrib="5" flow="600.00" occupancy="3.01" speed="41.00" harmonicMeanSpeed="38.80" length="7.40" nVehEntered="5"/>
    <interval begin="30.00" end="60.00" id="ooood3_0" nVehContrib="6" flow="720.00" occupancy="3.61" speed="38.78" harmonicMeanSpeed="37.84" length="7.00" nVehEntered="6"/>
    <interval begin="30.00" end="60.00" id="ooood3_1" nVehContrib="8" flow="960.00" occupancy="4.81" speed="37.40" harmonicMeanSpeed="36.57" length="6.75" nVehEntered="8"/>
    <interval begin="30.00" end="60.00" id="ooood3_2" nVehContrib="6" flow="720.00" occupancy="3.61" speed="41.55" harmonicMeanSpeed="39.44" length="7.50" nVehEntered="6"/>
    <interval begin="30.00" end="60.00" id="ooood4_0" nVehContrib="7" flow="840.00" occupancy="4.21" speed="39.57" harmonicMeanSpeed="37.89" length="7.14" nVehEntered="7"/>
    <interval begin="30.00" end="60.00" id="ooood4_1" nVehContrib="9" flow="1080.00" occupancy="5.42" speed="39.40" harmonicMeanSpeed="38.09" length="7.11" nVehEntered="9"/>
    <interval begin="30.00" end="60.00" id="ooood4_2" nVehContrib="9" flow="1080.00" occupancy="5.42" speed="39.40" harmonicMeanSpeed="36.83" length="7.11" nVehEntered="9"/>
    <interval begin="60.00" end="90.00" id="d1_0" nVehContrib="4" flow="480.00" occupancy="23.37" speed="8.76" harmonicMeanSpeed="4.24" length="6.50" nVehEntered="4"/>
    <interval begin="60.00" end="90.00" id="d1_1" nVehContrib="6" flow="720.00" occupancy="89.39" speed="3.33" harmonicMeanSpeed="1.59" length="7.17" nVehEntered="7"/>
    <interval begin="60.00" end="90.00" id="d1_2" nVehContrib="6" flow="720.00" occupancy="90.90" speed="2.87" harmonicMeanSpeed="1.67" length="6.67" nVehEntered="7"/>
    <interval begin="60.00" end="90.00" id="d2_0" nVehContrib="5" flow="600.00" occupancy="28.97" speed="8.20" harmonicMeanSpeed="6.32" length="7.00" nVehEntered="6"/>
    <interval begin="60.00" end="90.00" id="d2_1" nVehContrib="5" flow="600.00" occupancy="66.80" speed="5.10" harmonicMeanSpeed="2.05" length="7.20" nVehEntered="5"/>
    <interval begin="60.00" end="90.00" id="d2_2" nVehContrib="7" flow="840.00" occupancy="91.53" speed="4.55" harmonicMeanSpeed="2.22" length="7.29" nVehEntered="7"/>
    <interval begin="60.00" end="90.00" id="d3_0" nVehContrib="5" flow="600.00" occupancy="40.13" speed="6.00" harmonicMeanSpeed="3.03" length="7.40" nVehEntered="5"/>
    <interval begin="60.00" end="90.00" id="d3_1" nVehContrib="4" flow="480.00" occupancy="70.00" speed="6.27" harmonicMeanSpeed="2.59" length="6.75" nVehEntered="5"/>
    <interval begin="60.00" end="90.00" id="d3_2" nVehContrib="4" flow="480.00" occupancy="90.93" speed="2.07" harmonicMeanSpeed="1.22" length="7.75" nVehEntered="5"/>
    <interval begin="60.00" end="90.00" id="d4_0" nVehContrib="4" flow="480.00" occupancy="45.62" speed="8.49" harmonicMeanSpeed="7.24" length="6.75" nVehEntered="5"/>
    <interval begin="60.00" end="90.00" id="d4_1" nVehContrib="4" flow="480.00" occupancy="22.96" speed="8.11" harmonicMeanSpeed="5.36" length="7.50" nVehEntered="5"/>
    <interval begin="60.00" end="90.00" id="d4_2" nVehContrib="9" flow="1080.00" occupancy="70.19" speed="4.93" harmonicMeanSpeed="1.90" length="7.67" nVehEntered="8"/>
    <interval begin="60.00" end="90.00" id="od1_0" nVehContrib="5" flow="600.00" occupancy="8.96" speed="11.18" harmonicMeanSpeed="11.18" length="7.00" nVehEntered="4"/>
    <interval begin="60.00" end="90.00" id="od1_1" nVehContrib="6" flow="720.00" occupancy="36.82" speed="5.90" harmonicMeanSpeed="3.43" length="7.33" nVehEntered="6"/>
    <interval begin="60.00" end="90.00" id="od1_2" nVehContrib="7" flow="840.00" occupancy="73.02" speed="4.61" harmonicMeanSpeed="2.16" length="6.43" nVehEntered="7"/>
    <interval begin="60.00" end="90.00" id="od2_0" nVehContrib="5" flow="600.00" occupancy="10.35" speed="10.68" harmonicMeanSpeed="10.57" length="6.60" nVehEntered="5"/>
    <interval begin="60.00" end="90.00" id="od2_1" nVehContrib="6" flow="720.00" occupancy="14.40" speed="10.07" harmonicMeanSpeed="9.80" length="7.00" nVehEntered="6"/>
    <interval begin="60.00" end="90.00" id="od2_2" nVehContrib="6" flow="720.00" occupancy="89.18" speed="4.74" harmonicMeanSpeed="2.02" length="7.83" nVehEntered="7"/>
    <interval begin="60.00" end="90.00" id="od3_0" nVehContrib="5" flow="600.00" occupancy="11.06" speed="11.15" harmonicMeanSpeed="11.15" length="7.40" nVehEntered="5"/>
    <interval begin="60.00" end="90.00" id="od3_1" nVehContrib="7" flow="840.00" occupancy="14.98" speed="10.40" harmonicMeanSpeed="10.08" length="6.43" nVehEntered="7"/>
    <interval begin="60.00" end="90.00" id="od3_2" nVehContrib="5" flow="600.00" occupancy="87.75" speed="2.37" harmonicMeanSpeed="1.38" length="7.40" nVehEntered="6"/>
    <interval begin="60.00" end="90.00" id="od4_0" nVehContrib="7" flow="840.00" occupancy="13.35" speed="11.02" harmonicMeanSpeed="11.00" length="6.29" nVehEntered="7"/>
    <interval begin="60.00" end="90.00" id="od4_1" nVehContrib="5" flow="600.00" occupancy="9.55" speed="11.18" harmonicMeanSpeed="11.18" length="7.60" nVehEntered="4"/>
    <interval begin="60.00" end="90.00" id="od4_2" nVehContrib="9" flow="1080.00" occupancy="80.26" speed="4.24" harmonicMeanSpeed="2.36" length="7.78" nVehEntered="9"/>
    <interval begin="60.00" end="90.00" id="ood1_0" nVehContrib="4" flow="480.00" occupancy="10.03" speed="11.18" harmonicMeanSpeed="11.18" length="6.75" nVehEntered="5"/>
    <interval begin="60.00" end="90.00" id="ood1_1" nVehContrib="6" flow="720.00" occupancy="16.73" speed="9.42" harmonicMeanSpeed="8.11" length="7.67" nVehEntered="5"/>
    <interval begin="60.00" end="90.00" id="ood1_2" nVehContrib="8" flow="960.00" occupancy="45.34" speed="7.40" harmonicMeanSpeed="4.12" length="6.88" nVehEntered="8"/>
    <interval begin="60.00" end="90.00" id="ood2_0" nVehContrib="5" flow="600.00" occupancy="9.84" speed="11.18" harmonicMeanSpeed="11.18" length="6.60" nVehEntered="5"/>
    <interval begin="60.00" end="90.00" id="ood2_1" nVehContrib="7" flow="840.00" occupancy="14.91" speed="11.18" harmonicMeanSpeed="11.18" length="7.14" nVehEntered="7"/>
    <interval begin="60.00" end="90.00" id="ood2_2" nVehContrib="7" flow="840.00" occupancy="90.04" speed="4.35" harmonicMeanSpeed="1.95" length="7.71" nVehEntered="6"/>
    <interval begin="60.00" end="90.00" id="ood3_0" nVehContrib="5" flow="600.00" occupancy="11.03" speed="11.18" harmonicMeanSpeed="11.18" length="7.40" nVehEntered="5"/>
    <interval begin="60.00" end="90.00" id="ood3_1" nVehContrib="7" flow="840.00" occupancy="14.61" speed="11.18" harmonicMeanSpeed="11.18" length="7.00" nVehEntered="7"/>
    <interval begin="60.00" end="90.00" id="ood3_2" nVehContrib="6" flow="720.00" occupancy="23.35" speed="8.08" harmonicMeanSpeed="5.13" length="6.83" nVehEntered="6"/>
    <interval begin="60.00" end="90.00" id="ood4_0" nVehContrib="8" flow="960.00" occupancy="14.61" speed="11.18" harmonicMeanSpeed="11.18" length="6.13" nVehEntered="8"/>
    <interval begin="60.00" end="90.00" id="ood4_1" nVehContrib="5" flow="600.00" occupancy="10.44" speed="11.18" harmonicMeanSpeed="11.18" length="7.00" nVehEntered="5"/>
    <interval begin="60.00" end="90.00" id="ood4_2" nVehContrib="9" flow="1080.00" occupancy="81.15" speed="4.32" harmonicMeanSpeed="2.48" length="7.56" nVehEntered="8"/>
    <interval begin="60.00" end="90.00" id="oood1_0" nVehContrib="6" flow="720.00" occupancy="13.14" speed="11.16" harmonicMeanSpeed="11.16" length="7.33" nVehEntered="6"/>
    <interval begin="60.00" end="90.00" id="oood1_1" nVehContrib="5" flow="600.00" occupancy="11.81" speed="10.80" harmonicMeanSpeed="10.75" length="7.60" nVehEntered="5"/>
    <interval begin="60.00" end="90.00" id="oood1_2" nVehContrib="9" flow="1080.00" occupancy="44.05" speed="9.03" harmonicMeanSpeed="5.61" length="6.67" nVehEntered="10"/>
    <interval begin="60.00" end="90.00" id="oood2_0" nVehContrib="5" flow="600.00" occupancy="9.84" speed="11.18" harmonicMeanSpeed="11.18" length="6.60" nVehEntered="5"/>
    <interval begin="60.00" end="90.00" id="oood2_1" nVehContrib="7" flow="840.00" occupancy="14.95" speed="11.15" harmonicMeanSpeed="11.15" length="7.14" nVehEntered="7"/>
    <interval begin="60.00" end="90.00" id="oood2_2" nVehContrib="8" flow="960.00" occupancy="30.74" speed="8.50" harmonicMeanSpeed="6.74" length="7.75" nVehEntered="7"/>
    <interval begin="60.00" end="90.00" id="oood3_0" nVehContrib="5" flow="600.00" occupancy="9.97" speed="11.16" harmonicMeanSpeed="11.16" length="7.40" nVehEntered="4"/>
    <interval begin="60.00" end="90.00" id="oood3_1" nVehContrib="7" flow="840.00" occupancy="14.63" speed="11.17" harmonicMeanSpeed="11.17" length="7.00" nVehEntered="7"/>
    <interval begin="60.00" end="90.00" id="oood3_2" nVehContrib="8" flow="960.00" occupancy="43.44" speed="8.87" harmonicMeanSpeed="4.71" length="6.88" nVehEntered="7"/>
    <interval begin="60.00" end="90.00" id="oood4_0" nVehContrib="8" flow="960.00" occupancy="14.64" speed="11.16" harmonicMeanSpeed="11.16" length="6.13" nVehEntered="8"/>
    <interval begin="60.00" end="90.00" id="oood4_1" nVehContrib="5" flow="600.00" occupancy="11.34" speed="11.17" harmonicMeanSpeed="11.17" length="7.60" nVehEntered="5"/>
    <interval begin="60.00" end="90.00" id="oood4_2" nVehContrib="9" flow="1080.00" occupancy="40.09" speed="6.36" harmonicMeanSpeed="4.46" length="7.44" nVehEntered="8"/>