<?xml version="1.0" encoding="UTF-8"?>

<!-- generated on 12/17/20 14:54:08 by Eclipse SUMO GUI Version 1.8.0
<configuration xmlns:xsi="http://www.w3.org/2001/XMLSchema-instance" xsi:noNamespaceSchemaLocation="http://sumo.dlr.de/xsd/sumoConfiguration.xsd">

    <input>
        <net-file value="data/lane3.net.xml"/>
        <route-files value="data/icacc+.rou.xml"/>
        <additional-files value="data/icacc+.det.xml"/>
    </input>

    <output>
        <tripinfo-output value="tripinfo.xml"/>
    </output>

    <time>
        <begin value="0"/>
        <step-length value="0.1"/>
    </time>

    <processing>
        <collision.mingap-factor value="0"/>
        <time-to-teleport value="-1"/>
        <lanechange.duration value="0.5"/>
    </processing>

    <report>
        <verbose value="true"/>
        <no-step-log value="true"/>
    </report>

    <traci_server>
        <remote-port value="8942"/>
    </traci_server>

    <gui_only>
        <start value="true"/>
        <tracker-interval value="0.1"/>
    </gui_only>

</configuration>
-->

<detector xmlns:xsi="http://www.w3.org/2001/XMLSchema-instance" xsi:noNamespaceSchemaLocation="http://sumo.dlr.de/xsd/det_e1_file.xsd">
    <interval begin="0.00" end="30.00" id="d1_0" nVehContrib="7" flow="840.00" occupancy="16.31" speed="10.98" harmonicMeanSpeed="10.96" length="7.71" nVehEntered="7"/>
    <interval begin="0.00" end="30.00" id="d1_1" nVehContrib="1" flow="120.00" occupancy="1.79" speed="11.18" harmonicMeanSpeed="11.18" length="6.00" nVehEntered="1"/>
    <interval begin="0.00" end="30.00" id="d1_2" nVehContrib="6" flow="720.00" occupancy="12.70" speed="10.80" harmonicMeanSpeed="10.77" length="6.83" nVehEntered="6"/>
    <interval begin="0.00" end="30.00" id="d2_0" nVehContrib="5" flow="600.00" occupancy="12.82" speed="11.18" harmonicMeanSpeed="11.18" length="8.60" nVehEntered="5"/>
    <interval begin="0.00" end="30.00" id="d2_1" nVehContrib="5" flow="600.00" occupancy="11.33" speed="11.18" harmonicMeanSpeed="11.18" length="7.60" nVehEntered="5"/>
    <interval begin="0.00" end="30.00" id="d2_2" nVehContrib="3" flow="360.00" occupancy="6.60" speed="11.18" harmonicMeanSpeed="11.18" length="6.67" nVehEntered="4"/>
    <interval begin="0.00" end="30.00" id="d3_0" nVehContrib="5" flow="600.00" occupancy="9.24" speed="11.18" harmonicMeanSpeed="11.18" length="6.20" nVehEntered="5"/>
    <interval begin="0.00" end="30.00" id="d3_1" nVehContrib="1" flow="120.00" occupancy="1.79" speed="11.18" harmonicMeanSpeed="11.18" length="6.00" nVehEntered="1"/>
    <interval begin="0.00" end="30.00" id="d3_2" nVehContrib="7" flow="840.00" occupancy="15.57" speed="10.91" harmonicMeanSpeed="10.86" length="7.29" nVehEntered="7"/>
    <interval begin="0.00" end="30.00" id="d4_0" nVehContrib="6" flow="720.00" occupancy="14.06" speed="10.82" harmonicMeanSpeed="10.75" length="7.50" nVehEntered="6"/>
    <interval begin="0.00" end="30.00" id="d4_1" nVehContrib="1" flow="120.00" occupancy="2.68" speed="11.18" harmonicMeanSpeed="11.18" length="9.00" nVehEntered="1"/>
    <interval begin="0.00" end="30.00" id="d4_2" nVehContrib="6" flow="720.00" occupancy="18.66" speed="10.32" harmonicMeanSpeed="10.13" length="7.50" nVehEntered="7"/>
    <interval begin="0.00" end="30.00" id="od1_0" nVehContrib="8" flow="960.00" occupancy="17.85" speed="11.06" harmonicMeanSpeed="11.05" length="7.38" nVehEntered="8"/>
    <interval begin="0.00" end="30.00" id="od1_1" nVehContrib="1" flow="120.00" occupancy="1.79" speed="11.18" harmonicMeanSpeed="11.18" length="6.00" nVehEntered="1"/>
    <interval begin="0.00" end="30.00" id="od1_2" nVehContrib="7" flow="840.00" occupancy="13.75" speed="11.16" harmonicMeanSpeed="11.16" length="6.57" nVehEntered="7"/>
    <interval begin="0.00" end="30.00" id="od2_0" nVehContrib="5" flow="600.00" occupancy="15.26" speed="11.18" harmonicMeanSpeed="11.18" length="8.60" nVehEntered="6"/>
    <interval begin="0.00" end="30.00" id="od2_1" nVehContrib="6" flow="720.00" occupancy="13.12" speed="11.18" harmonicMeanSpeed="11.18" length="7.33" nVehEntered="6"/>
    <interval begin="0.00" end="30.00" id="od2_2" nVehContrib="4" flow="480.00" occupancy="8.05" speed="11.18" harmonicMeanSpeed="11.18" length="6.75" nVehEntered="4"/>
    <interval begin="0.00" end="30.00" id="od3_0" nVehContrib="5" flow="600.00" occupancy="9.24" speed="11.18" harmonicMeanSpeed="11.18" length="6.20" nVehEntered="5"/>
    <interval begin="0.00" end="30.00" id="od3_1" nVehContrib="1" flow="120.00" occupancy="1.79" speed="11.18" harmonicMeanSpeed="11.18" length="6.00" nVehEntered="1"/>
    <interval begin="0.00" end="30.00" id="od3_2" nVehContrib="8" flow="960.00" occupancy="17.59" speed="11.18" harmonicMeanSpeed="11.18" length="7.38" nVehEntered="8"/>
    <interval begin="0.00" end="30.00" id="od4_0" nVehContrib="7" flow="840.00" occupancy="15.50" speed="11.18" harmonicMeanSpeed="11.18" length="7.43" nVehEntered="7"/>
    <interval begin="0.00" end="30.00" id="od4_1" nVehContrib="1" flow="120.00" occupancy="2.68" speed="11.18" harmonicMeanSpeed="11.18" length="9.00" nVehEntered="1"/>
    <interval begin="0.00" end="30.00" id="od4_2" nVehContrib="7" flow="840.00" occupancy="16.10" speed="11.18" harmonicMeanSpeed="11.18" length="7.71" nVehEntered="7"/>
    <interval begin="0.00" end="30.00" id="ood1_0" nVehContrib="9" flow="1080.00" occupancy="19.98" speed="11.18" harmonicMeanSpeed="11.18" length="7.44" nVehEntered="9"/>
    <interval begin="0.00" end="30.00" id="ood1_1" nVehContrib="1" flow="120.00" occupancy="1.79" speed="11.18" harmonicMeanSpeed="11.18" length="6.00" nVehEntered="1"/>
    <interval begin="0.00" end="30.00" id="ood1_2" nVehContrib="8" flow="960.00" occupancy="16.23" speed="11.18" harmonicMeanSpeed="11.18" length="6.75" nVehEntered="9"/>
    <interval begin="0.00" end="30.00" id="ood2_0" nVehContrib="7" flow="840.00" occupancy="18.19" speed="11.18" harmonicMeanSpeed="11.18" length="8.71" nVehEntered="7"/>
    <interval begin="0.00" end="30.00" id="ood2_1" nVehContrib="6" flow="720.00" occupancy="13.49" speed="11.18" harmonicMeanSpeed="11.18" length="7.33" nVehEntered="7"/>
    <interval begin="0.00" end="30.00" id="ood2_2" nVehContrib="5" flow="600.00" occupancy="9.84" speed="11.18" harmonicMeanSpeed="11.18" length="6.60" nVehEntered="5"/>
    <interval begin="0.00" end="30.00" id="ood3_0" nVehContrib="6" flow="720.00" occupancy="10.73" speed="11.18" harmonicMeanSpeed="11.18" length="6.00" nVehEntered="6"/>
    <interval begin="0.00" end="30.00" id="ood3_1" nVehContrib="1" flow="120.00" occupancy="4.35" speed="11.18" harmonicMeanSpeed="11.18" length="6.00" nVehEntered="2"/>
    <interval begin="0.00" end="30.00" id="ood3_2" nVehContrib="8" flow="960.00" occupancy="17.59" speed="11.18" harmonicMeanSpeed="11.18" length="7.38" nVehEntered="8"/>
    <interval begin="0.00" end="30.00" id="ood4_0" nVehContrib="8" flow="960.00" occupancy="18.19" speed="11.18" harmonicMeanSpeed="11.18" length="7.63" nVehEntered="8"/>
    <interval begin="0.00" end="30.00" id="ood4_1" nVehContrib="2" flow="240.00" occupancy="5.07" speed="11.18" harmonicMeanSpeed="11.18" length="8.50" nVehEntered="2"/>
    <interval begin="0.00" end="30.00" id="ood4_2" nVehContrib="8" flow="960.00" occupancy="18.49" speed="11.18" harmonicMeanSpeed="11.18" length="7.75" nVehEntered="8"/>
    <interval begin="0.00" end="30.00" id="oood1_0" nVehContrib="9" flow="1080.00" occupancy="20.09" speed="11.12" harmonicMeanSpeed="11.12" length="7.44" nVehEntered="9"/>
    <interval begin="0.00" end="30.00" id="oood1_1" nVehContrib="2" flow="240.00" occupancy="3.88" speed="11.18" harmonicMeanSpeed="11.18" length="6.50" nVehEntered="2"/>
    <interval begin="0.00" end="30.00" id="oood1_2" nVehContrib="9" flow="1080.00" occupancy="18.80" speed="11.17" harmonicMeanSpeed="11.17" length="7.00" nVehEntered="9"/>
    <interval begin="0.00" end="30.00" id="oood2_0" nVehContrib="9" flow="1080.00" occupancy="22.54" speed="11.10" harmonicMeanSpeed="11.10" length="8.33" nVehEntered="9"/>
    <interval begin="0.00" end="30.00" id="oood2_1" nVehContrib="7" flow="840.00" occupancy="14.65" speed="11.15" harmonicMeanSpeed="11.15" length="7.00" nVehEntered="7"/>
    <interval begin="0.00" end="30.00" id="oood2_2" nVehContrib="6" flow="720.00" occupancy="11.74" speed="11.06" harmonicMeanSpeed="11.06" length="6.50" nVehEntered="6"/>
    <interval begin="0.00" end="30.00" id="oood3_0" nVehContrib="7" flow="840.00" occupancy="12.86" speed="11.15" harmonicMeanSpeed="11.15" length="6.14" nVehEntered="7"/>
    <interval begin="0.00" end="30.00" id="oood3_1" nVehContrib="2" flow="240.00" occupancy="4.47" speed="11.18" harmonicMeanSpeed="11.18" length="7.50" nVehEntered="2"/>
    <interval begin="0.00" end="30.00" id="oood3_2" nVehContrib="8" flow="960.00" occupancy="17.73" speed="11.10" harmonicMeanSpeed="11.10" length="7.38" nVehEntered="8"/>
    <interval begin="0.00" end="30.00" id="oood4_0" nVehContrib="8" flow="960.00" occupancy="20.12" speed="11.10" harmonicMeanSpeed="11.10" length="7.63" nVehEntered="9"/>
    <interval begin="0.00" end="30.00" id="oood4_1" nVehContrib="2" flow="240.00" occupancy="5.77" speed="11.08" harmonicMeanSpeed="11.08" length="8.50" nVehEntered="3"/>
    <interval begin="0.00" end="30.00" id="oood4_2" nVehContrib="8" flow="960.00" occupancy="20.23" speed="11.18" harmonicMeanSpeed="11.18" length="7.75" nVehEntered="9"/>
    <interval begin="0.00" end="30.00" id="ooood1_0" nVehContrib="5" flow="600.00" occupancy="3.01" speed="43.21" harmonicMeanSpeed="42.83" length="7.80" nVehEntered="5"/>
    <interval begin="0.00" end="30.00" id="ooood1_1" nVehContrib="12" flow="1440.00" occupancy="7.55" speed="36.47" harmonicMeanSpeed="34.82" length="6.58" nVehEntered="13"/>
    <interval begin="0.00" end="30.00" id="ooood1_2" nVehContrib="12" flow="1440.00" occupancy="7.22" speed="40.63" harmonicMeanSpeed="39.24" length="7.33" nVehEntered="12"/>
    <interval begin="0.00" end="30.00" id="ooood2_0" nVehContrib="14" flow="1680.00" occupancy="8.42" speed="37.99" harmonicMeanSpeed="36.58" length="6.86" nVehEntered="14"/>
    <interval begin="0.00" end="30.00" id="ooood2_1" nVehContrib="7" flow="840.00" occupancy="4.21" speed="41.95" harmonicMeanSpeed="40.07" length="7.57" nVehEntered="7"/>
    <interval begin="0.00" end="30.00" id="ooood2_2" nVehContrib="8" flow="960.00" occupancy="4.81" speed="39.47" harmonicMeanSpeed="36.90" length="7.13" nVehEntered="8"/>
    <interval begin="0.00" end="30.00" id="ooood3_0" nVehContrib="7" flow="840.00" occupancy="4.21" speed="40.36" harmonicMeanSpeed="37.84" length="7.29" nVehEntered="7"/>
    <interval begin="0.00" end="30.00" id="ooood3_1" nVehContrib="8" flow="960.00" occupancy="4.81" speed="38.78" harmonicMeanSpeed="37.07" length="7.00" nVehEntered="8"/>
    <interval begin="0.00" end="30.00" id="ooood3_2" nVehContrib="10" flow="1200.00" occupancy="6.02" speed="41.00" harmonicMeanSpeed="39.23" length="7.40" nVehEntered="10"/>
    <interval begin="0.00" end="30.00" id="ooood4_0" nVehContrib="5" flow="600.00" occupancy="3.01" speed="41.00" harmonicMeanSpeed="39.35" length="7.40" nVehEntered="5"/>
    <interval begin="0.00" end="30.00" id="ooood4_1" nVehContrib="11" flow="1320.00" occupancy="6.62" speed="42.81" harmonicMeanSpeed="41.13" length="7.73" nVehEntered="11"/>
    <interval begin="0.00" end="30.00" id="ooood4_2" nVehContrib="11" flow="1320.00" occupancy="6.62" speed="43.31" harmonicMeanSpeed="42.09" length="7.82" nVehEntered="11"/>
    <interval begin="30.00" end="39.00" id="d1_0" nVehContrib="3" flow="1200.00" occupancy="19.55" speed="10.94" harmonicMeanSpeed="10.93" length="6.00" nVehEntered="4"/>
    <interval begin="30.00" end="39.00" id="d1_1" nVehContrib="1" flow="400.00" occupancy="6.96" speed="11.18" harmonicMeanSpeed="11.18" length="7.00" nVehEntered="1"/>
    <interval begin="30.00" end="39.00" id="d1_2" nVehContrib="3" flow="1200.00" occupancy="85.29" speed="7.21" harmonicMeanSpeed="2.72" length="7.33" nVehEntered="4"/>
    <interval begin="30.00" end="39.00" id="d2_0" nVehContrib="4" flow="1600.00" occupancy="35.69" speed="10.18" harmonicMeanSpeed="9.81" length="8.00" nVehEntered="4"/>
    <interval begin="30.00" end="39.00" id="d2_1" nVehContrib="2" flow="800.00" occupancy="10.93" speed="11.18" harmonicMeanSpeed="11.18" length="5.50" nVehEntered="2"/>
    <interval begin="30.00" end="39.00" id="d2_2" nVehContrib="4" flow="1600.00" occupancy="37.23" speed="9.15" harmonicMeanSpeed="6.95" length="6.25" nVehEntered="3"/>
    <interval begin="30.00" end="39.00" id="d3_0" nVehContrib="3" flow="1200.00" occupancy="21.25" speed="11.18" harmonicMeanSpeed="11.18" length="7.00" nVehEntered="4"/>
    <interval begin="30.00" end="39.00" id="d3_1" nVehContrib="2" flow="800.00" occupancy="14.91" speed="11.18" harmonicMeanSpeed="11.18" length="7.50" nVehEntered="2"/>
    <interval begin="30.00" end="39.00" id="d3_2" nVehContrib="1" flow="400.00" occupancy="10.78" speed="9.28" harmonicMeanSpeed="9.28" length="8.00" nVehEntered="2"/>
    <interval begin="30.00" end="39.00" id="d4_0" nVehContrib="4" flow="1600.00" occupancy="33.79" speed="11.18" harmonicMeanSpeed="11.18" length="8.50" nVehEntered="4"/>
    <interval begin="30.00" end="39.00" id="d4_1" nVehContrib="2" flow="800.00" occupancy="14.91" speed="11.18" harmonicMeanSpeed="11.18" length="7.50" nVehEntered="2"/>
    <interval begin="30.00" end="39.00" id="d4_2" nVehContrib="3" flow="1200.00" occupancy="36.53" speed="7.69" harmonicMeanSpeed="5.55" length="8.00" nVehEntered="2"/>
    <interval begin="30.00" end="39.00" id="od1_0" nVehContrib="3" flow="1200.00" occupancy="25.09" speed="11.18" harmonicMeanSpeed="11.18" length="6.67" nVehEntered="4"/>
    <interval begin="30.00" end="39.00" id="od1_1" nVehContrib="1" flow="400.00" occupancy="6.96" speed="11.18" harmonicMeanSpeed="11.18" length="7.00" nVehEntered="1"/>
    <interval begin="30.00" end="39.00" id="od1_2" nVehContrib="4" flow="1600.00" occupancy="38.51" speed="10.11" harmonicMeanSpeed="9.96" length="8.50" nVehEntered="5"/>
    <interval begin="30.00" end="39.00" id="od2_0" nVehContrib="6" flow="2400.00" occupancy="36.82" speed="10.81" harmonicMeanSpeed="10.75" length="7.33" nVehEntered="5"/>
    <interval begin="30.00" end="39.00" id="od2_1" nVehContrib="1" flow="400.00" occupancy="4.97" speed="11.18" harmonicMeanSpeed="11.18" length="5.00" nVehEntered="1"/>
    <interval begin="30.00" end="39.00" id="od2_2" nVehContrib="4" flow="1600.00" occupancy="24.85" speed="11.18" harmonicMeanSpeed="11.18" length="6.00" nVehEntered="5"/>
    <interval begin="30.00" end="39.00" id="od3_0" nVehContrib="4" flow="1600.00" occupancy="29.82" speed="11.18" harmonicMeanSpeed="11.18" length="7.50" nVehEntered="4"/>
    <interval begin="30.00" end="39.00" id="od3_1" nVehContrib="3" flow="1200.00" occupancy="23.85" speed="11.18" harmonicMeanSpeed="11.18" length="8.00" nVehEntered="3"/>
    <interval begin="30.00" end="39.00" id="od3_2" nVehContrib="2" flow="800.00" occupancy="16.90" speed="11.18" harmonicMeanSpeed="11.18" length="8.50" nVehEntered="2"/>
    <interval begin="30.00" end="39.00" id="od4_0" nVehContrib="3" flow="1200.00" occupancy="30.12" speed="11.18" harmonicMeanSpeed="11.18" length="9.00" nVehEntered="4"/>
    <interval begin="30.00" end="39.00" id="od4_1" nVehContrib="2" flow="800.00" occupancy="14.91" speed="11.18" harmonicMeanSpeed="11.18" length="7.50" nVehEntered="2"/>
    <interval begin="30.00" end="39.00" id="od4_2" nVehContrib="3" flow="1200.00" occupancy="19.88" speed="11.18" harmonicMeanSpeed="11.18" length="6.67" nVehEntered="3"/>
    <interval begin="30.00" end="39.00" id="ood1_0" nVehContrib="3" flow="1200.00" occupancy="24.03" speed="11.18" harmonicMeanSpeed="11.18" length="7.00" nVehEntered="4"/>
    <interval begin="30.00" end="39.00" id="ood1_1" nVehContrib="1" flow="400.00" occupancy="12.66" speed="11.18" harmonicMeanSpeed="11.18" length="7.00" nVehEntered="2"/>
    <interval begin="30.00" end="39.00" id="ood1_2" nVehContrib="4" flow="1600.00" occupancy="31.97" speed="11.01" harmonicMeanSpeed="11.00" length="8.00" nVehEntered="3"/>
    <interval begin="30.00" end="39.00" id="ood2_0" nVehContrib="5" flow="2000.00" occupancy="35.33" speed="11.05" harmonicMeanSpeed="11.04" length="7.00" nVehEntered="5"/>
    <interval begin="30.00" end="39.00" id="ood2_1" nVehContrib="1" flow="400.00" occupancy="3.73" speed="11.18" harmonicMeanSpeed="11.18" length="5.00" nVehEntered="0"/>
    <interval begin="30.00" end="39.00" id="ood2_2" nVehContrib="5" flow="2000.00" occupancy="27.83" speed="11.18" harmonicMeanSpeed="11.18" length="5.60" nVehEntered="5"/>
    <interval begin="30.00" end="39.00" id="ood3_0" nVehContrib="4" flow="1600.00" occupancy="35.06" speed="11.18" harmonicMeanSpeed="11.18" length="7.50" nVehEntered="5"/>
    <interval begin="30.00" end="39.00" id="ood3_1" nVehContrib="3" flow="1200.00" occupancy="15.30" speed="11.18" harmonicMeanSpeed="11.18" length="8.00" nVehEntered="2"/>
    <interval begin="30.00" end="39.00" id="ood3_2" nVehContrib="2" flow="800.00" occupancy="25.44" speed="11.18" harmonicMeanSpeed="11.18" length="8.50" nVehEntered="3"/>
    <interval begin="30.00" end="39.00" id="ood4_0" nVehContrib="3" flow="1200.00" occupancy="26.83" speed="11.18" harmonicMeanSpeed="11.18" length="9.00" nVehEntered="3"/>
    <interval begin="30.00" end="39.00" id="ood4_1" nVehContrib="2" flow="800.00" occupancy="11.93" speed="11.18" harmonicMeanSpeed="11.18" length="6.00" nVehEntered="2"/>
    <interval begin="30.00" end="39.00" id="ood4_2" nVehContrib="3" flow="1200.00" occupancy="24.10" speed="11.18" harmonicMeanSpeed="11.18" length="7.00" nVehEntered="4"/>
    <interval begin="30.00" end="39.00" id="oood1_0" nVehContrib="5" flow="2000.00" occupancy="32.81" speed="11.18" harmonicMeanSpeed="11.18" length="6.60" nVehEntered="5"/>
    <interval begin="30.00" end="39.00" id="oood1_1" nVehContrib="1" flow="400.00" occupancy="5.98" speed="11.14" harmonicMeanSpeed="11.14" length="6.00" nVehEntered="1"/>
    <interval begin="30.00" end="39.00" id="oood1_2" nVehContrib="4" flow="1600.00" occupancy="29.83" speed="11.17" harmonicMeanSpeed="11.17" length="7.50" nVehEntered="4"/>
    <interval begin="30.00" end="39.00" id="oood2_0" nVehContrib="3" flow="1200.00" occupancy="20.87" speed="11.18" harmonicMeanSpeed="11.18" length="7.00" nVehEntered="3"/>
    <interval begin="30.00" end="39.00" id="oood2_1" nVehContrib="0" flow="0.00" occupancy="0.00" speed="-1.00" harmonicMeanSpeed="-1.00" length="-1.00" nVehEntered="0"/>
    <interval begin="30.00" end="39.00" id="oood2_2" nVehContrib="5" flow="2000.00" occupancy="31.23" speed="11.01" harmonicMeanSpeed="11.01" length="6.20" nVehEntered="5"/>
    <interval begin="30.00" end="39.00" id="oood3_0" nVehContrib="5" flow="2000.00" occupancy="38.81" speed="11.17" harmonicMeanSpeed="11.17" length="7.80" nVehEntered="5"/>
    <interval begin="30.00" end="39.00" id="oood3_1" nVehContrib="2" flow="800.00" occupancy="14.92" speed="11.17" harmonicMeanSpeed="11.17" length="7.50" nVehEntered="2"/>
    <interval begin="30.00" end="39.00" id="oood3_2" nVehContrib="3" flow="1200.00" occupancy="25.84" speed="11.18" harmonicMeanSpeed="11.18" length="8.67" nVehEntered="3"/>
    <interval begin="30.00" end="39.00" id="oood4_0" nVehContrib="4" flow="1600.00" occupancy="29.05" speed="11.10" harmonicMeanSpeed="11.09" length="8.75" nVehEntered="3"/>
    <interval begin="30.00" end="39.00" id="oood4_1" nVehContrib="2" flow="800.00" occupancy="9.77" speed="11.16" harmonicMeanSpeed="11.16" length="6.00" nVehEntered="1"/>
    <interval begin="30.00" end="39.00" id="oood4_2" nVehContrib="4" flow="1600.00" occupancy="23.87" speed="10.91" harmonicMeanSpeed="10.91" length="7.00" nVehEntered="4"/>
    <interval begin="30.00" end="39.00" id="ooood1_0" nVehContrib="1" flow="400.00" occupancy="2.01" speed="27.70" harmonicMeanSpeed="27.70" length="5.00" nVehEntered="1"/>
    <interval begin="30.00" end="39.00" id="ooood1_1" nVehContrib="5" flow="2000.00" occupancy="8.92" speed="36.56" harmonicMeanSpeed="34.76" length="6.60" nVehEntered="4"/>
    <interval begin="30.00" end="39.00" id="ooood1_2" nVehContrib="2" flow="800.00" occupancy="4.01" speed="44.32" harmonicMeanSpeed="43.63" length="8.00" nVehEntered="2"/>
    <interval begin="30.00" end="39.00" id="ooood2_0" nVehContrib="2" flow="800.00" occupancy="4.01" speed="38.78" harmonicMeanSpeed="35.62" length="7.00" nVehEntered="2"/>
    <interval begin="30.00" end="39.00" id="ooood2_1" nVehContrib="1" flow="400.00" occupancy="2.01" speed="27.70" harmonicMeanSpeed="27.70" length="5.00" nVehEntered="1"/>
    <interval begin="30.00" end="39.00" id="ooood2_2" nVehContrib="6" flow="2400.00" occupancy="12.03" speed="36.93" harmonicMeanSpeed="35.74" length="6.67" nVehEntered="6"/>
    <interval begin="30.00" end="39.00" id="ooood3_0" nVehContrib="1" flow="400.00" occupancy="2.01" speed="49.86" harmonicMeanSpeed="49.86" length="9.00" nVehEntered="1"/>
    <interval begin="30.00" end="39.00" id="ooood3_1" nVehContrib="3" flow="1200.00" occupancy="6.02" speed="46.17" harmonicMeanSpeed="45.53" length="8.33" nVehEntered="3"/>
    <interval begin="30.00" end="39.00" id="ooood3_2" nVehContrib="4" flow="1600.00" occupancy="8.02" speed="34.63" harmonicMeanSpeed="33.66" length="6.25" nVehEntered="4"/>
    <interval begin="30.00" end="39.00" id="ooood4_0" nVehContrib="2" flow="800.00" occupancy="4.01" speed="36.01" harmonicMeanSpeed="35.80" length="6.50" nVehEntered="2"/>
    <interval begin="30.00" end="39.00" id="ooood4_1" nVehContrib="6" flow="2400.00" occupancy="12.03" speed="39.70" harmonicMeanSpeed="38.18" length="7.17" nVehEntered="6"/>
    <interval begin="30.00" end="39.00" id="ooood4_2" nVehContrib="1" flow="400.00" occupancy="2.01" speed="27.70" harmonicMeanSpeed="27.70" length="5.00" nVehEntered="1"/>
</detector>