<?xml version="1.0" encoding="UTF-8"?>

<!-- generated on 08/13/20 17:44:29 by Eclipse SUMO GUI Version 1.6.0
<configuration xmlns:xsi="http://www.w3.org/2001/XMLSchema-instance" xsi:noNamespaceSchemaLocation="http://sumo.dlr.de/xsd/sumoConfiguration.xsd">

    <input>
        <net-file value="data/lane3.net.xml"/>
        <route-files value="data/icacc+.rou.xml"/>
        <additional-files value="data/icacc+.det.xml"/>
    </input>

    <output>
        <tripinfo-output value="tripinfo.xml"/>
    </output>

    <time>
        <begin value="0"/>
        <step-length value="0.1"/>
    </time>

    <processing>
        <collision.mingap-factor value="0"/>
        <time-to-teleport value="-1"/>
        <lanechange.duration value="0.5"/>
    </processing>

    <report>
        <verbose value="true"/>
        <no-step-log value="true"/>
    </report>

    <traci_server>
        <remote-port value="11678"/>
    </traci_server>

    <gui_only>
        <start value="true"/>
        <tracker-interval value="0.1"/>
    </gui_only>

</configuration>
-->

<detector xmlns:xsi="http://www.w3.org/2001/XMLSchema-instance" xsi:noNamespaceSchemaLocation="http://sumo.dlr.de/xsd/det_e1_file.xsd">
    <interval begin="0.00" end="30.00" id="d1_0" nVehContrib="3" flow="360.00" occupancy="6.56" speed="11.18" harmonicMeanSpeed="11.18" length="7.33" nVehEntered="3"/>
    <interval begin="0.00" end="30.00" id="d1_1" nVehContrib="1" flow="120.00" occupancy="1.79" speed="11.18" harmonicMeanSpeed="11.18" length="6.00" nVehEntered="1"/>
    <interval begin="0.00" end="30.00" id="d1_2" nVehContrib="7" flow="840.00" occupancy="21.09" speed="10.95" harmonicMeanSpeed="10.91" length="7.29" nVehEntered="8"/>
    <interval begin="0.00" end="30.00" id="d2_0" nVehContrib="7" flow="840.00" occupancy="14.01" speed="11.18" harmonicMeanSpeed="11.18" length="6.71" nVehEntered="7"/>
    <interval begin="0.00" end="30.00" id="d2_1" nVehContrib="1" flow="120.00" occupancy="1.79" speed="11.18" harmonicMeanSpeed="11.18" length="6.00" nVehEntered="1"/>
    <interval begin="0.00" end="30.00" id="d2_2" nVehContrib="3" flow="360.00" occupancy="5.96" speed="11.18" harmonicMeanSpeed="11.18" length="6.67" nVehEntered="3"/>
    <interval begin="0.00" end="30.00" id="d3_0" nVehContrib="1" flow="120.00" occupancy="2.09" speed="11.18" harmonicMeanSpeed="11.18" length="7.00" nVehEntered="1"/>
    <interval begin="0.00" end="30.00" id="d3_1" nVehContrib="4" flow="480.00" occupancy="8.94" speed="11.18" harmonicMeanSpeed="11.18" length="7.50" nVehEntered="4"/>
    <interval begin="0.00" end="30.00" id="d3_2" nVehContrib="6" flow="720.00" occupancy="12.87" speed="11.13" harmonicMeanSpeed="11.13" length="7.17" nVehEntered="6"/>
    <interval begin="0.00" end="30.00" id="d4_0" nVehContrib="3" flow="360.00" occupancy="5.37" speed="11.18" harmonicMeanSpeed="11.18" length="6.00" nVehEntered="3"/>
    <interval begin="0.00" end="30.00" id="d4_1" nVehContrib="2" flow="240.00" occupancy="4.47" speed="11.18" harmonicMeanSpeed="11.18" length="7.50" nVehEntered="2"/>
    <interval begin="0.00" end="30.00" id="d4_2" nVehContrib="6" flow="720.00" occupancy="12.22" speed="11.18" harmonicMeanSpeed="11.18" length="6.83" nVehEntered="6"/>
    <interval begin="0.00" end="30.00" id="od1_0" nVehContrib="4" flow="480.00" occupancy="9.24" speed="11.18" harmonicMeanSpeed="11.18" length="7.75" nVehEntered="4"/>
    <interval begin="0.00" end="30.00" id="od1_1" nVehContrib="1" flow="120.00" occupancy="1.79" speed="11.18" harmonicMeanSpeed="11.18" length="6.00" nVehEntered="1"/>
    <interval begin="0.00" end="30.00" id="od1_2" nVehContrib="9" flow="1080.00" occupancy="19.15" speed="11.14" harmonicMeanSpeed="11.14" length="7.11" nVehEntered="9"/>
    <interval begin="0.00" end="30.00" id="od2_0" nVehContrib="7" flow="840.00" occupancy="14.01" speed="11.18" harmonicMeanSpeed="11.18" length="6.71" nVehEntered="7"/>
    <interval begin="0.00" end="30.00" id="od2_1" nVehContrib="2" flow="240.00" occupancy="3.88" speed="11.18" harmonicMeanSpeed="11.18" length="6.50" nVehEntered="2"/>
    <interval begin="0.00" end="30.00" id="od2_2" nVehContrib="3" flow="360.00" occupancy="5.96" speed="11.18" harmonicMeanSpeed="11.18" length="6.67" nVehEntered="3"/>
    <interval begin="0.00" end="30.00" id="od3_0" nVehContrib="2" flow="240.00" occupancy="3.88" speed="11.18" harmonicMeanSpeed="11.18" length="6.50" nVehEntered="2"/>
    <interval begin="0.00" end="30.00" id="od3_1" nVehContrib="4" flow="480.00" occupancy="8.94" speed="11.18" harmonicMeanSpeed="11.18" length="7.50" nVehEntered="4"/>
    <interval begin="0.00" end="30.00" id="od3_2" nVehContrib="6" flow="720.00" occupancy="13.93" speed="11.18" harmonicMeanSpeed="11.18" length="7.17" nVehEntered="7"/>
    <interval begin="0.00" end="30.00" id="od4_0" nVehContrib="3" flow="360.00" occupancy="5.55" speed="11.18" harmonicMeanSpeed="11.18" length="6.00" nVehEntered="4"/>
    <interval begin="0.00" end="30.00" id="od4_1" nVehContrib="2" flow="240.00" occupancy="4.47" speed="11.18" harmonicMeanSpeed="11.18" length="7.50" nVehEntered="2"/>
    <interval begin="0.00" end="30.00" id="od4_2" nVehContrib="7" flow="840.00" occupancy="14.91" speed="11.18" harmonicMeanSpeed="11.18" length="7.14" nVehEntered="7"/>
    <interval begin="0.00" end="30.00" id="ood1_0" nVehContrib="5" flow="600.00" occupancy="12.03" speed="11.18" harmonicMeanSpeed="11.18" length="7.60" nVehEntered="6"/>
    <interval begin="0.00" end="30.00" id="ood1_1" nVehContrib="1" flow="120.00" occupancy="1.79" speed="11.18" harmonicMeanSpeed="11.18" length="6.00" nVehEntered="1"/>
    <interval begin="0.00" end="30.00" id="ood1_2" nVehContrib="10" flow="1200.00" occupancy="20.57" speed="11.18" harmonicMeanSpeed="11.18" length="6.90" nVehEntered="10"/>
    <interval begin="0.00" end="30.00" id="ood2_0" nVehContrib="7" flow="840.00" occupancy="14.95" speed="11.18" harmonicMeanSpeed="11.18" length="6.71" nVehEntered="8"/>
    <interval begin="0.00" end="30.00" id="ood2_1" nVehContrib="2" flow="240.00" occupancy="3.88" speed="11.18" harmonicMeanSpeed="11.18" length="6.50" nVehEntered="2"/>
    <interval begin="0.00" end="30.00" id="ood2_2" nVehContrib="4" flow="480.00" occupancy="8.35" speed="11.18" harmonicMeanSpeed="11.18" length="7.00" nVehEntered="4"/>
    <interval begin="0.00" end="30.00" id="ood3_0" nVehContrib="2" flow="240.00" occupancy="3.88" speed="11.18" harmonicMeanSpeed="11.18" length="6.50" nVehEntered="2"/>
    <interval begin="0.00" end="30.00" id="ood3_1" nVehContrib="4" flow="480.00" occupancy="8.94" speed="11.18" harmonicMeanSpeed="11.18" length="7.50" nVehEntered="4"/>
    <interval begin="0.00" end="30.00" id="ood3_2" nVehContrib="7" flow="840.00" occupancy="16.74" speed="11.18" harmonicMeanSpeed="11.18" length="7.00" nVehEntered="8"/>
    <interval begin="0.00" end="30.00" id="ood4_0" nVehContrib="4" flow="480.00" occupancy="7.45" speed="11.18" harmonicMeanSpeed="11.18" length="6.25" nVehEntered="4"/>
    <interval begin="0.00" end="30.00" id="ood4_1" nVehContrib="2" flow="240.00" occupancy="4.47" speed="11.18" harmonicMeanSpeed="11.18" length="7.50" nVehEntered="2"/>
    <interval begin="0.00" end="30.00" id="ood4_2" nVehContrib="8" flow="960.00" occupancy="18.62" speed="11.18" harmonicMeanSpeed="11.18" length="7.38" nVehEntered="9"/>
    <interval begin="0.00" end="30.00" id="oood1_0" nVehContrib="6" flow="720.00" occupancy="13.12" speed="11.18" harmonicMeanSpeed="11.18" length="7.33" nVehEntered="6"/>
    <interval begin="0.00" end="30.00" id="oood1_1" nVehContrib="1" flow="120.00" occupancy="1.79" speed="11.18" harmonicMeanSpeed="11.18" length="6.00" nVehEntered="1"/>
    <interval begin="0.00" end="30.00" id="oood1_2" nVehContrib="10" flow="1200.00" occupancy="20.57" speed="11.18" harmonicMeanSpeed="11.18" length="6.90" nVehEntered="10"/>
    <interval begin="0.00" end="30.00" id="oood2_0" nVehContrib="8" flow="960.00" occupancy="16.41" speed="11.17" harmonicMeanSpeed="11.17" length="6.88" nVehEntered="8"/>
    <interval begin="0.00" end="30.00" id="oood2_1" nVehContrib="3" flow="360.00" occupancy="5.99" speed="11.15" harmonicMeanSpeed="11.15" length="6.67" nVehEntered="4"/>
    <interval begin="0.00" end="30.00" id="oood2_2" nVehContrib="5" flow="600.00" occupancy="9.86" speed="11.16" harmonicMeanSpeed="11.16" length="6.60" nVehEntered="5"/>
    <interval begin="0.00" end="30.00" id="oood3_0" nVehContrib="2" flow="240.00" occupancy="3.88" speed="11.18" harmonicMeanSpeed="11.18" length="6.50" nVehEntered="2"/>
    <interval begin="0.00" end="30.00" id="oood3_1" nVehContrib="4" flow="480.00" occupancy="8.94" speed="11.18" harmonicMeanSpeed="11.18" length="7.50" nVehEntered="4"/>
    <interval begin="0.00" end="30.00" id="oood3_2" nVehContrib="8" flow="960.00" occupancy="17.06" speed="11.15" harmonicMeanSpeed="11.15" length="7.13" nVehEntered="8"/>
    <interval begin="0.00" end="30.00" id="oood4_0" nVehContrib="5" flow="600.00" occupancy="9.54" speed="11.18" harmonicMeanSpeed="11.18" length="6.40" nVehEntered="5"/>
    <interval begin="0.00" end="30.00" id="oood4_1" nVehContrib="2" flow="240.00" occupancy="4.47" speed="11.18" harmonicMeanSpeed="11.18" length="7.50" nVehEntered="2"/>
    <interval begin="0.00" end="30.00" id="oood4_2" nVehContrib="9" flow="1080.00" occupancy="19.69" speed="11.17" harmonicMeanSpeed="11.17" length="7.33" nVehEntered="9"/>
    <interval begin="0.00" end="30.00" id="ooood1_0" nVehContrib="5" flow="600.00" occupancy="3.01" speed="42.11" harmonicMeanSpeed="41.06" length="7.60" nVehEntered="5"/>
    <interval begin="0.00" end="30.00" id="ooood1_1" nVehContrib="8" flow="960.00" occupancy="4.81" speed="45.01" harmonicMeanSpeed="44.15" length="8.13" nVehEntered="8"/>
    <interval begin="0.00" end="30.00" id="ooood1_2" nVehContrib="9" flow="1080.00" occupancy="5.42" speed="33.86" harmonicMeanSpeed="33.01" length="6.11" nVehEntered="9"/>
    <interval begin="0.00" end="30.00" id="ooood2_0" nVehContrib="7" flow="840.00" occupancy="4.21" speed="41.95" harmonicMeanSpeed="40.89" length="7.57" nVehEntered="7"/>
    <interval begin="0.00" end="30.00" id="ooood2_1" nVehContrib="8" flow="960.00" occupancy="4.81" speed="37.40" harmonicMeanSpeed="35.99" length="6.75" nVehEntered="8"/>
    <interval begin="0.00" end="30.00" id="ooood2_2" nVehContrib="7" flow="840.00" occupancy="4.21" speed="34.03" harmonicMeanSpeed="32.93" length="6.14" nVehEntered="7"/>
    <interval begin="0.00" end="30.00" id="ooood3_0" nVehContrib="7" flow="840.00" occupancy="4.21" speed="43.53" harmonicMeanSpeed="41.43" length="7.86" nVehEntered="7"/>
    <interval begin="0.00" end="30.00" id="ooood3_1" nVehContrib="10" flow="1200.00" occupancy="6.02" speed="40.44" harmonicMeanSpeed="39.39" length="7.30" nVehEntered="10"/>
    <interval begin="0.00" end="30.00" id="ooood3_2" nVehContrib="4" flow="480.00" occupancy="2.41" speed="38.78" harmonicMeanSpeed="37.99" length="7.00" nVehEntered="4"/>
    <interval begin="0.00" end="30.00" id="ooood4_0" nVehContrib="7" flow="840.00" occupancy="4.21" speed="41.95" harmonicMeanSpeed="40.72" length="7.57" nVehEntered="7"/>
    <interval begin="0.00" end="30.00" id="ooood4_1" nVehContrib="5" flow="600.00" occupancy="3.01" speed="37.67" harmonicMeanSpeed="36.28" length="6.80" nVehEntered="5"/>
    <interval begin="0.00" end="30.00" id="ooood4_2" nVehContrib="9" flow="1080.00" occupancy="5.42" speed="36.93" harmonicMeanSpeed="36.01" length="6.67" nVehEntered="9"/>
    <interval begin="30.00" end="60.00" id="d1_0" nVehContrib="9" flow="1080.00" occupancy="19.68" speed="11.18" harmonicMeanSpeed="11.18" length="7.33" nVehEntered="9"/>
    <interval begin="30.00" end="60.00" id="d1_1" nVehContrib="3" flow="360.00" occupancy="7.45" speed="11.18" harmonicMeanSpeed="11.18" length="8.33" nVehEntered="3"/>
    <interval begin="30.00" end="60.00" id="d1_2" nVehContrib="9" flow="1080.00" occupancy="40.43" speed="8.03" harmonicMeanSpeed="5.03" length="6.67" nVehEntered="9"/>
    <interval begin="30.00" end="60.00" id="d2_0" nVehContrib="5" flow="600.00" occupancy="10.92" speed="10.84" harmonicMeanSpeed="10.81" length="7.00" nVehEntered="6"/>
    <interval begin="30.00" end="60.00" id="d2_1" nVehContrib="6" flow="720.00" occupancy="14.16" speed="11.08" harmonicMeanSpeed="11.08" length="7.83" nVehEntered="6"/>
    <interval begin="30.00" end="60.00" id="d2_2" nVehContrib="7" flow="840.00" occupancy="35.50" speed="8.83" harmonicMeanSpeed="4.79" length="6.57" nVehEntered="7"/>
    <interval begin="30.00" end="60.00" id="d3_0" nVehContrib="7" flow="840.00" occupancy="14.35" speed="11.14" harmonicMeanSpeed="11.14" length="6.86" nVehEntered="7"/>
    <interval begin="30.00" end="60.00" id="d3_1" nVehContrib="5" flow="600.00" occupancy="17.99" speed="9.88" harmonicMeanSpeed="9.57" length="7.80" nVehEntered="6"/>
    <interval begin="30.00" end="60.00" id="d3_2" nVehContrib="9" flow="1080.00" occupancy="54.58" speed="8.59" harmonicMeanSpeed="4.57" length="7.78" nVehEntered="10"/>
    <interval begin="30.00" end="60.00" id="d4_0" nVehContrib="10" flow="1200.00" occupancy="19.68" speed="11.18" harmonicMeanSpeed="11.18" length="6.60" nVehEntered="10"/>
    <interval begin="30.00" end="60.00" id="d4_1" nVehContrib="4" flow="480.00" occupancy="8.65" speed="11.18" harmonicMeanSpeed="11.18" length="7.25" nVehEntered="4"/>
    <interval begin="30.00" end="60.00" id="d4_2" nVehContrib="8" flow="960.00" occupancy="23.26" speed="9.50" harmonicMeanSpeed="7.86" length="6.75" nVehEntered="8"/>
    <interval begin="30.00" end="60.00" id="od1_0" nVehContrib="9" flow="1080.00" occupancy="18.49" speed="11.18" harmonicMeanSpeed="11.18" length="6.89" nVehEntered="9"/>
    <interval begin="30.00" end="60.00" id="od1_1" nVehContrib="3" flow="360.00" occupancy="7.45" speed="11.18" harmonicMeanSpeed="11.18" length="8.33" nVehEntered="3"/>
    <interval begin="30.00" end="60.00" id="od1_2" nVehContrib="10" flow="1200.00" occupancy="20.30" speed="10.61" harmonicMeanSpeed="10.45" length="6.40" nVehEntered="10"/>
    <interval begin="30.00" end="60.00" id="od2_0" nVehContrib="6" flow="720.00" occupancy="13.67" speed="11.18" harmonicMeanSpeed="11.18" length="6.83" nVehEntered="7"/>
    <interval begin="30.00" end="60.00" id="od2_1" nVehContrib="5" flow="600.00" occupancy="11.93" speed="11.18" harmonicMeanSpeed="11.18" length="8.00" nVehEntered="5"/>
    <interval begin="30.00" end="60.00" id="od2_2" nVehContrib="8" flow="960.00" occupancy="16.16" speed="10.84" harmonicMeanSpeed="10.75" length="6.50" nVehEntered="8"/>
    <interval begin="30.00" end="60.00" id="od3_0" nVehContrib="6" flow="720.00" occupancy="12.52" speed="11.18" harmonicMeanSpeed="11.18" length="7.00" nVehEntered="6"/>
    <interval begin="30.00" end="60.00" id="od3_1" nVehContrib="6" flow="720.00" occupancy="14.34" speed="11.16" harmonicMeanSpeed="11.16" length="8.00" nVehEntered="6"/>
    <interval begin="30.00" end="60.00" id="od3_2" nVehContrib="11" flow="1320.00" occupancy="26.85" speed="10.46" harmonicMeanSpeed="10.17" length="7.64" nVehEntered="10"/>
    <interval begin="30.00" end="60.00" id="od4_0" nVehContrib="11" flow="1320.00" occupancy="22.73" speed="11.18" harmonicMeanSpeed="11.18" length="6.64" nVehEntered="11"/>
    <interval begin="30.00" end="60.00" id="od4_1" nVehContrib="5" flow="600.00" occupancy="10.44" speed="11.18" harmonicMeanSpeed="11.18" length="7.00" nVehEntered="5"/>
    <interval begin="30.00" end="60.00" id="od4_2" nVehContrib="8" flow="960.00" occupancy="15.64" speed="11.09" harmonicMeanSpeed="11.09" length="6.50" nVehEntered="8"/>
    <interval begin="30.00" end="60.00" id="ood1_0" nVehContrib="9" flow="1080.00" occupancy="17.49" speed="11.18" harmonicMeanSpeed="11.18" length="6.78" nVehEntered="8"/>
    <interval begin="30.00" end="60.00" id="ood1_1" nVehContrib="4" flow="480.00" occupancy="10.84" speed="11.18" harmonicMeanSpeed="11.18" length="7.50" nVehEntered="5"/>
    <interval begin="30.00" end="60.00" id="ood1_2" nVehContrib="9" flow="1080.00" occupancy="17.59" speed="11.18" harmonicMeanSpeed="11.18" length="6.56" nVehEntered="9"/>
    <interval begin="30.00" end="60.00" id="ood2_0" nVehContrib="7" flow="840.00" occupancy="16.54" speed="11.18" harmonicMeanSpeed="11.18" length="7.14" nVehEntered="7"/>
    <interval begin="30.00" end="60.00" id="ood2_1" nVehContrib="5" flow="600.00" occupancy="11.93" speed="11.18" harmonicMeanSpeed="11.18" length="8.00" nVehEntered="5"/>
    <interval begin="30.00" end="60.00" id="ood2_2" nVehContrib="8" flow="960.00" occupancy="14.61" speed="11.18" harmonicMeanSpeed="11.18" length="6.13" nVehEntered="8"/>
    <interval begin="30.00" end="60.00" id="ood3_0" nVehContrib="6" flow="720.00" occupancy="15.09" speed="11.18" harmonicMeanSpeed="11.18" length="7.00" nVehEntered="7"/>
    <interval begin="30.00" end="60.00" id="ood3_1" nVehContrib="6" flow="720.00" occupancy="14.31" speed="11.18" harmonicMeanSpeed="11.18" length="8.00" nVehEntered="6"/>
    <interval begin="30.00" end="60.00" id="ood3_2" nVehContrib="11" flow="1320.00" occupancy="23.82" speed="11.18" harmonicMeanSpeed="11.18" length="7.91" nVehEntered="11"/>
    <interval begin="30.00" end="60.00" id="ood4_0" nVehContrib="11" flow="1320.00" occupancy="24.33" speed="11.18" harmonicMeanSpeed="11.18" length="6.73" nVehEntered="12"/>
    <interval begin="30.00" end="60.00" id="ood4_1" nVehContrib="5" flow="600.00" occupancy="10.44" speed="11.18" harmonicMeanSpeed="11.18" length="7.00" nVehEntered="5"/>
    <interval begin="30.00" end="60.00" id="ood4_2" nVehContrib="7" flow="840.00" occupancy="11.79" speed="11.18" harmonicMeanSpeed="11.18" length="6.14" nVehEntered="6"/>
    <interval begin="30.00" end="60.00" id="oood1_0" nVehContrib="8" flow="960.00" occupancy="16.44" speed="11.15" harmonicMeanSpeed="11.15" length="6.88" nVehEntered="8"/>
    <interval begin="30.00" end="60.00" id="oood1_1" nVehContrib="6" flow="720.00" occupancy="13.12" speed="11.18" harmonicMeanSpeed="11.18" length="7.33" nVehEntered="6"/>
    <interval begin="30.00" end="60.00" id="oood1_2" nVehContrib="10" flow="1200.00" occupancy="19.19" speed="11.12" harmonicMeanSpeed="11.12" length="6.40" nVehEntered="10"/>
    <interval begin="30.00" end="60.00" id="oood2_0" nVehContrib="8" flow="960.00" occupancy="17.93" speed="11.14" harmonicMeanSpeed="11.14" length="7.50" nVehEntered="8"/>
    <interval begin="30.00" end="60.00" id="oood2_1" nVehContrib="4" flow="480.00" occupancy="9.83" speed="11.18" harmonicMeanSpeed="11.18" length="8.25" nVehEntered="3"/>
    <interval begin="30.00" end="60.00" id="oood2_2" nVehContrib="8" flow="960.00" occupancy="14.93" speed="11.16" harmonicMeanSpeed="11.16" length="6.25" nVehEntered="8"/>
    <interval begin="30.00" end="60.00" id="oood3_0" nVehContrib="7" flow="840.00" occupancy="15.25" speed="11.15" harmonicMeanSpeed="11.15" length="7.29" nVehEntered="7"/>
    <interval begin="30.00" end="60.00" id="oood3_1" nVehContrib="6" flow="720.00" occupancy="14.31" speed="11.18" harmonicMeanSpeed="11.18" length="8.00" nVehEntered="6"/>
    <interval begin="30.00" end="60.00" id="oood3_2" nVehContrib="12" flow="1440.00" occupancy="27.82" speed="11.13" harmonicMeanSpeed="11.13" length="7.75" nVehEntered="12"/>
    <interval begin="30.00" end="60.00" id="oood4_0" nVehContrib="11" flow="1320.00" occupancy="22.50" speed="11.12" harmonicMeanSpeed="11.12" length="6.82" nVehEntered="12"/>
    <interval begin="30.00" end="60.00" id="oood4_1" nVehContrib="5" flow="600.00" occupancy="11.16" speed="11.16" harmonicMeanSpeed="11.16" length="7.00" nVehEntered="6"/>
    <interval begin="30.00" end="60.00" id="oood4_2" nVehContrib="6" flow="720.00" occupancy="10.93" speed="10.96" harmonicMeanSpeed="10.94" length="6.00" nVehEntered="6"/>
    <interval begin="30.00" end="60.00" id="ooood1_0" nVehContrib="5" flow="600.00" occupancy="3.01" speed="37.67" harmonicMeanSpeed="35.11" length="6.80" nVehEntered="5"/>
    <interval begin="30.00" end="60.00" id="ooood1_1" nVehContrib="7" flow="840.00" occupancy="4.21" speed="37.20" harmonicMeanSpeed="35.82" length="6.71" nVehEntered="7"/>
    <interval begin="30.00" end="60.00" id="ooood1_2" nVehContrib="11" flow="1320.00" occupancy="6.62" speed="34.25" harmonicMeanSpeed="32.75" length="6.18" nVehEntered="11"/>
    <interval begin="30.00" end="60.00" id="ooood2_0" nVehContrib="6" flow="720.00" occupancy="3.61" speed="40.63" harmonicMeanSpeed="39.24" length="7.33" nVehEntered="6"/>
    <interval begin="30.00" end="60.00" id="ooood2_1" nVehContrib="7" flow="840.00" occupancy="4.21" speed="41.16" harmonicMeanSpeed="38.89" length="7.43" nVehEntered="7"/>
    <interval begin="30.00" end="60.00" id="ooood2_2" nVehContrib="6" flow="720.00" occupancy="3.61" speed="35.09" harmonicMeanSpeed="34.34" length="6.33" nVehEntered="6"/>
    <interval begin="30.00" end="60.00" id="ooood3_0" nVehContrib="8" flow="960.00" occupancy="4.81" speed="36.70" harmonicMeanSpeed="35.14" length="6.63" nVehEntered="8"/>
    <interval begin="30.00" end="60.00" id="ooood3_1" nVehContrib="7" flow="840.00" occupancy="4.21" speed="40.36" harmonicMeanSpeed="38.20" length="7.29" nVehEntered="7"/>
    <interval begin="30.00" end="60.00" id="ooood3_2" nVehContrib="9" flow="1080.00" occupancy="5.42" speed="46.17" harmonicMeanSpeed="45.28" length="8.33" nVehEntered="9"/>
    <interval begin="30.00" end="60.00" id="ooood4_0" nVehContrib="5" flow="600.00" occupancy="3.01" speed="39.89" harmonicMeanSpeed="39.44" length="7.20" nVehEntered="5"/>
    <interval begin="30.00" end="60.00" id="ooood4_1" nVehContrib="11" flow="1320.00" occupancy="6.62" speed="33.74" harmonicMeanSpeed="32.61" length="6.09" nVehEntered="11"/>
    <interval begin="30.00" end="60.00" id="ooood4_2" nVehContrib="8" flow="960.00" occupancy="4.81" speed="35.32" harmonicMeanSpeed="34.28" length="6.38" nVehEntered="8"/>
    <interval begin="60.00" end="90.00" id="d1_0" nVehContrib="9" flow="1080.00" occupancy="16.40" speed="11.18" harmonicMeanSpeed="11.18" length="6.11" nVehEntered="9"/>
    <interval begin="60.00" end="90.00" id="d1_1" nVehContrib="5" flow="600.00" occupancy="10.14" speed="11.18" harmonicMeanSpeed="11.18" length="6.80" nVehEntered="5"/>
    <interval begin="60.00" end="90.00" id="d1_2" nVehContrib="9" flow="1080.00" occupancy="46.80" speed="6.86" harmonicMeanSpeed="3.31" length="6.22" nVehEntered="8"/>
    <interval begin="60.00" end="90.00" id="d2_0" nVehContrib="8" flow="960.00" occupancy="16.94" speed="11.16" harmonicMeanSpeed="11.16" length="7.13" nVehEntered="7"/>
    <interval begin="60.00" end="90.00" id="d2_1" nVehContrib="4" flow="480.00" occupancy="8.89" speed="10.88" harmonicMeanSpeed="10.86" length="7.25" nVehEntered="4"/>
    <interval begin="60.00" end="90.00" id="d2_2" nVehContrib="6" flow="720.00" occupancy="28.99" speed="8.04" harmonicMeanSpeed="5.43" length="6.33" nVehEntered="7"/>
    <interval begin="60.00" end="90.00" id="d3_0" nVehContrib="9" flow="1080.00" occupancy="19.93" speed="11.03" harmonicMeanSpeed="11.02" length="7.33" nVehEntered="9"/>
    <interval begin="60.00" end="90.00" id="d3_1" nVehContrib="4" flow="480.00" occupancy="11.65" speed="8.39" harmonicMeanSpeed="6.34" length="6.75" nVehEntered="3"/>
    <interval begin="60.00" end="90.00" id="d3_2" nVehContrib="7" flow="840.00" occupancy="68.30" speed="5.69" harmonicMeanSpeed="2.53" length="7.86" nVehEntered="6"/>
    <interval begin="60.00" end="90.00" id="d4_0" nVehContrib="11" flow="1320.00" occupancy="22.46" speed="11.13" harmonicMeanSpeed="11.13" length="6.82" nVehEntered="11"/>
    <interval begin="60.00" end="90.00" id="d4_1" nVehContrib="4" flow="480.00" occupancy="8.09" speed="11.11" harmonicMeanSpeed="11.11" length="6.75" nVehEntered="4"/>
    <interval begin="60.00" end="90.00" id="d4_2" nVehContrib="5" flow="600.00" occupancy="45.40" speed="6.85" harmonicMeanSpeed="4.60" length="7.00" nVehEntered="6"/>
    <interval begin="60.00" end="90.00" id="od1_0" nVehContrib="8" flow="960.00" occupancy="15.75" speed="11.18" harmonicMeanSpeed="11.18" length="6.25" nVehEntered="9"/>
    <interval begin="60.00" end="90.00" id="od1_1" nVehContrib="6" flow="720.00" occupancy="12.52" speed="11.18" harmonicMeanSpeed="11.18" length="7.00" nVehEntered="6"/>
    <interval begin="60.00" end="90.00" id="od1_2" nVehContrib="7" flow="840.00" occupancy="45.00" speed="8.05" harmonicMeanSpeed="3.89" length="6.29" nVehEntered="7"/>
    <interval begin="60.00" end="90.00" id="od2_0" nVehContrib="7" flow="840.00" occupancy="13.76" speed="11.18" harmonicMeanSpeed="11.18" length="7.29" nVehEntered="6"/>
    <interval begin="60.00" end="90.00" id="od2_1" nVehContrib="4" flow="480.00" occupancy="8.65" speed="11.18" harmonicMeanSpeed="11.18" length="7.25" nVehEntered="4"/>
    <interval begin="60.00" end="90.00" id="od2_2" nVehContrib="7" flow="840.00" occupancy="43.66" speed="9.51" harmonicMeanSpeed="4.83" length="7.00" nVehEntered="8"/>
    <interval begin="60.00" end="90.00" id="od3_0" nVehContrib="10" flow="1200.00" occupancy="22.06" speed="11.18" harmonicMeanSpeed="11.18" length="7.40" nVehEntered="10"/>
    <interval begin="60.00" end="90.00" id="od3_1" nVehContrib="3" flow="360.00" occupancy="5.37" speed="11.18" harmonicMeanSpeed="11.18" length="6.00" nVehEntered="3"/>
    <interval begin="60.00" end="90.00" id="od3_2" nVehContrib="8" flow="960.00" occupancy="71.89" speed="5.58" harmonicMeanSpeed="2.61" length="7.25" nVehEntered="8"/>
    <interval begin="60.00" end="90.00" id="od4_0" nVehContrib="11" flow="1320.00" occupancy="20.92" speed="11.18" harmonicMeanSpeed="11.18" length="6.73" nVehEntered="10"/>
    <interval begin="60.00" end="90.00" id="od4_1" nVehContrib="3" flow="360.00" occupancy="6.26" speed="11.18" harmonicMeanSpeed="11.18" length="7.00" nVehEntered="3"/>
    <interval begin="60.00" end="90.00" id="od4_2" nVehContrib="7" flow="840.00" occupancy="17.96" speed="9.94" harmonicMeanSpeed="9.62" length="7.29" nVehEntered="7"/>
    <interval begin="60.00" end="90.00" id="ood1_0" nVehContrib="8" flow="960.00" occupancy="16.44" speed="11.18" harmonicMeanSpeed="11.18" length="6.38" nVehEntered="9"/>
    <interval begin="60.00" end="90.00" id="ood1_1" nVehContrib="5" flow="600.00" occupancy="9.13" speed="11.18" harmonicMeanSpeed="11.18" length="7.40" nVehEntered="4"/>
    <interval begin="60.00" end="90.00" id="ood1_2" nVehContrib="7" flow="840.00" occupancy="13.12" speed="11.18" harmonicMeanSpeed="11.18" length="6.29" nVehEntered="8"/>
    <interval begin="60.00" end="90.00" id="ood2_0" nVehContrib="7" flow="840.00" occupancy="11.45" speed="11.18" harmonicMeanSpeed="11.18" length="6.71" nVehEntered="6"/>
    <interval begin="60.00" end="90.00" id="ood2_1" nVehContrib="4" flow="480.00" occupancy="8.65" speed="11.18" harmonicMeanSpeed="11.18" length="7.25" nVehEntered="4"/>
    <interval begin="60.00" end="90.00" id="ood2_2" nVehContrib="9" flow="1080.00" occupancy="50.20" speed="8.88" harmonicMeanSpeed="3.77" length="7.00" nVehEntered="10"/>
    <interval begin="60.00" end="90.00" id="ood3_0" nVehContrib="11" flow="1320.00" occupancy="22.02" speed="11.18" harmonicMeanSpeed="11.18" length="7.45" nVehEntered="11"/>
    <interval begin="60.00" end="90.00" id="ood3_1" nVehContrib="3" flow="360.00" occupancy="5.37" speed="11.18" harmonicMeanSpeed="11.18" length="6.00" nVehEntered="3"/>
    <interval begin="60.00" end="90.00" id="ood3_2" nVehContrib="9" flow="1080.00" occupancy="80.50" speed="6.04" harmonicMeanSpeed="2.91" length="6.78" nVehEntered="9"/>
    <interval begin="60.00" end="90.00" id="ood4_0" nVehContrib="11" flow="1320.00" occupancy="18.90" speed="11.18" harmonicMeanSpeed="11.18" length="6.45" nVehEntered="10"/>
    <interval begin="60.00" end="90.00" id="ood4_1" nVehContrib="3" flow="360.00" occupancy="6.26" speed="11.18" harmonicMeanSpeed="11.18" length="7.00" nVehEntered="3"/>
    <interval begin="60.00" end="90.00" id="ood4_2" nVehContrib="9" flow="1080.00" occupancy="19.95" speed="11.01" harmonicMeanSpeed="10.99" length="7.33" nVehEntered="9"/>
    <interval begin="60.00" end="90.00" id="oood1_0" nVehContrib="10" flow="1200.00" occupancy="19.24" speed="11.09" harmonicMeanSpeed="11.09" length="6.40" nVehEntered="10"/>
    <interval begin="60.00" end="90.00" id="oood1_1" nVehContrib="3" flow="360.00" occupancy="6.87" speed="11.16" harmonicMeanSpeed="11.16" length="7.67" nVehEntered="3"/>
    <interval begin="60.00" end="90.00" id="oood1_2" nVehContrib="7" flow="840.00" occupancy="13.48" speed="11.12" harmonicMeanSpeed="11.12" length="6.43" nVehEntered="7"/>
    <interval begin="60.00" end="90.00" id="oood2_0" nVehContrib="5" flow="600.00" occupancy="8.65" speed="11.17" harmonicMeanSpeed="11.17" length="5.80" nVehEntered="5"/>
    <interval begin="60.00" end="90.00" id="oood2_1" nVehContrib="4" flow="480.00" occupancy="8.65" speed="11.18" harmonicMeanSpeed="11.18" length="7.25" nVehEntered="4"/>
    <interval begin="60.00" end="90.00" id="oood2_2" nVehContrib="10" flow="1200.00" occupancy="24.03" speed="10.42" harmonicMeanSpeed="10.04" length="7.10" nVehEntered="11"/>
    <interval begin="60.00" end="90.00" id="oood3_0" nVehContrib="11" flow="1320.00" occupancy="24.22" speed="11.15" harmonicMeanSpeed="11.15" length="7.36" nVehEntered="11"/>
    <interval begin="60.00" end="90.00" id="oood3_1" nVehContrib="4" flow="480.00" occupancy="6.86" speed="11.18" harmonicMeanSpeed="11.18" length="5.75" nVehEntered="4"/>
    <interval begin="60.00" end="90.00" id="oood3_2" nVehContrib="10" flow="1200.00" occupancy="30.54" speed="8.58" harmonicMeanSpeed="7.43" length="6.80" nVehEntered="10"/>
    <interval begin="60.00" end="90.00" id="oood4_0" nVehContrib="11" flow="1320.00" occupancy="20.42" speed="11.08" harmonicMeanSpeed="11.08" length="6.18" nVehEntered="10"/>
    <interval begin="60.00" end="90.00" id="oood4_1" nVehContrib="3" flow="360.00" occupancy="5.70" speed="10.96" harmonicMeanSpeed="10.96" length="7.00" nVehEntered="2"/>
    <interval begin="60.00" end="90.00" id="oood4_2" nVehContrib="9" flow="1080.00" occupancy="21.48" speed="11.16" harmonicMeanSpeed="11.16" length="7.33" nVehEntered="10"/>