<?xml version="1.0" encoding="UTF-8"?>

<!-- generated on 04/20/21 16:32:31 by Eclipse SUMO GUI Version 1.8.0
<configuration xmlns:xsi="http://www.w3.org/2001/XMLSchema-instance" xsi:noNamespaceSchemaLocation="http://sumo.dlr.de/xsd/sumoConfiguration.xsd">

    <input>
        <net-file value="data/lane3.net.xml"/>
        <route-files value="data/icacc+.rou.xml"/>
        <additional-files value="data/icacc+.det.xml"/>
    </input>

    <output>
        <tripinfo-output value="tripinfo.xml"/>
    </output>

    <time>
        <begin value="0"/>
        <step-length value="0.05"/>
    </time>

    <processing>
        <collision.mingap-factor value="0"/>
        <time-to-teleport value="-1"/>
        <lanechange.duration value="0.5"/>
    </processing>

    <report>
        <verbose value="true"/>
        <no-step-log value="true"/>
    </report>

    <traci_server>
        <remote-port value="7936"/>
    </traci_server>

    <gui_only>
        <start value="true"/>
        <tracker-interval value="0.05"/>
    </gui_only>

</configuration>
-->

<detector xmlns:xsi="http://www.w3.org/2001/XMLSchema-instance" xsi:noNamespaceSchemaLocation="http://sumo.dlr.de/xsd/det_e1_file.xsd">
    <interval begin="0.00" end="30.00" id="d1_0" nVehContrib="1" flow="120.00" occupancy="1.07" speed="27.96" harmonicMeanSpeed="27.96" length="9.00" nVehEntered="1"/>
    <interval begin="0.00" end="30.00" id="d1_1" nVehContrib="4" flow="480.00" occupancy="2.86" speed="27.96" harmonicMeanSpeed="27.96" length="6.00" nVehEntered="4"/>
    <interval begin="0.00" end="30.00" id="d1_2" nVehContrib="6" flow="720.00" occupancy="5.72" speed="27.96" harmonicMeanSpeed="27.96" length="8.00" nVehEntered="6"/>
    <interval begin="0.00" end="30.00" id="d2_0" nVehContrib="6" flow="720.00" occupancy="4.53" speed="27.96" harmonicMeanSpeed="27.96" length="6.33" nVehEntered="6"/>
    <interval begin="0.00" end="30.00" id="d2_1" nVehContrib="3" flow="360.00" occupancy="2.38" speed="27.96" harmonicMeanSpeed="27.96" length="6.67" nVehEntered="3"/>
    <interval begin="0.00" end="30.00" id="d2_2" nVehContrib="6" flow="720.00" occupancy="4.65" speed="27.96" harmonicMeanSpeed="27.96" length="6.50" nVehEntered="6"/>
    <interval begin="0.00" end="30.00" id="d3_0" nVehContrib="2" flow="240.00" occupancy="1.55" speed="27.96" harmonicMeanSpeed="27.96" length="6.50" nVehEntered="2"/>
    <interval begin="0.00" end="30.00" id="d3_1" nVehContrib="2" flow="240.00" occupancy="1.31" speed="27.96" harmonicMeanSpeed="27.96" length="5.50" nVehEntered="2"/>
    <interval begin="0.00" end="30.00" id="d3_2" nVehContrib="7" flow="840.00" occupancy="5.60" speed="27.96" harmonicMeanSpeed="27.96" length="6.71" nVehEntered="7"/>
    <interval begin="0.00" end="30.00" id="d4_0" nVehContrib="9" flow="1080.00" occupancy="7.15" speed="27.96" harmonicMeanSpeed="27.96" length="6.67" nVehEntered="9"/>
    <interval begin="0.00" end="30.00" id="d4_1" nVehContrib="1" flow="120.00" occupancy="1.07" speed="27.96" harmonicMeanSpeed="27.96" length="9.00" nVehEntered="1"/>
    <interval begin="0.00" end="30.00" id="d4_2" nVehContrib="3" flow="360.00" occupancy="2.38" speed="27.96" harmonicMeanSpeed="27.96" length="6.67" nVehEntered="3"/>
    <interval begin="0.00" end="30.00" id="od1_0" nVehContrib="1" flow="120.00" occupancy="1.07" speed="27.96" harmonicMeanSpeed="27.96" length="9.00" nVehEntered="1"/>
    <interval begin="0.00" end="30.00" id="od1_1" nVehContrib="4" flow="480.00" occupancy="2.86" speed="27.96" harmonicMeanSpeed="27.96" length="6.00" nVehEntered="4"/>
    <interval begin="0.00" end="30.00" id="od1_2" nVehContrib="6" flow="720.00" occupancy="5.72" speed="27.96" harmonicMeanSpeed="27.96" length="8.00" nVehEntered="6"/>
    <interval begin="0.00" end="30.00" id="od2_0" nVehContrib="6" flow="720.00" occupancy="4.53" speed="27.96" harmonicMeanSpeed="27.96" length="6.33" nVehEntered="6"/>
    <interval begin="0.00" end="30.00" id="od2_1" nVehContrib="3" flow="360.00" occupancy="2.38" speed="27.96" harmonicMeanSpeed="27.96" length="6.67" nVehEntered="3"/>
    <interval begin="0.00" end="30.00" id="od2_2" nVehContrib="6" flow="720.00" occupancy="4.65" speed="27.96" harmonicMeanSpeed="27.96" length="6.50" nVehEntered="6"/>
    <interval begin="0.00" end="30.00" id="od3_0" nVehContrib="2" flow="240.00" occupancy="1.55" speed="27.96" harmonicMeanSpeed="27.96" length="6.50" nVehEntered="2"/>
    <interval begin="0.00" end="30.00" id="od3_1" nVehContrib="2" flow="240.00" occupancy="1.31" speed="27.96" harmonicMeanSpeed="27.96" length="5.50" nVehEntered="2"/>
    <interval begin="0.00" end="30.00" id="od3_2" nVehContrib="7" flow="840.00" occupancy="5.60" speed="27.96" harmonicMeanSpeed="27.96" length="6.71" nVehEntered="7"/>
    <interval begin="0.00" end="30.00" id="od4_0" nVehContrib="9" flow="1080.00" occupancy="7.15" speed="27.96" harmonicMeanSpeed="27.96" length="6.67" nVehEntered="9"/>
    <interval begin="0.00" end="30.00" id="od4_1" nVehContrib="1" flow="120.00" occupancy="1.07" speed="27.96" harmonicMeanSpeed="27.96" length="9.00" nVehEntered="1"/>
    <interval begin="0.00" end="30.00" id="od4_2" nVehContrib="4" flow="480.00" occupancy="3.34" speed="27.96" harmonicMeanSpeed="27.96" length="7.00" nVehEntered="4"/>
    <interval begin="0.00" end="30.00" id="ood1_0" nVehContrib="1" flow="120.00" occupancy="1.07" speed="27.96" harmonicMeanSpeed="27.96" length="9.00" nVehEntered="1"/>
    <interval begin="0.00" end="30.00" id="ood1_1" nVehContrib="4" flow="480.00" occupancy="2.86" speed="27.96" harmonicMeanSpeed="27.96" length="6.00" nVehEntered="4"/>
    <interval begin="0.00" end="30.00" id="ood1_2" nVehContrib="6" flow="720.00" occupancy="5.72" speed="27.96" harmonicMeanSpeed="27.96" length="8.00" nVehEntered="6"/>
    <interval begin="0.00" end="30.00" id="ood2_0" nVehContrib="6" flow="720.00" occupancy="4.53" speed="27.96" harmonicMeanSpeed="27.96" length="6.33" nVehEntered="6"/>
    <interval begin="0.00" end="30.00" id="ood2_1" nVehContrib="3" flow="360.00" occupancy="2.38" speed="27.96" harmonicMeanSpeed="27.96" length="6.67" nVehEntered="3"/>
    <interval begin="0.00" end="30.00" id="ood2_2" nVehContrib="6" flow="720.00" occupancy="4.65" speed="27.96" harmonicMeanSpeed="27.96" length="6.50" nVehEntered="6"/>
    <interval begin="0.00" end="30.00" id="ood3_0" nVehContrib="2" flow="240.00" occupancy="1.55" speed="27.96" harmonicMeanSpeed="27.96" length="6.50" nVehEntered="2"/>
    <interval begin="0.00" end="30.00" id="ood3_1" nVehContrib="3" flow="360.00" occupancy="2.03" speed="27.96" harmonicMeanSpeed="27.96" length="5.67" nVehEntered="3"/>
    <interval begin="0.00" end="30.00" id="ood3_2" nVehContrib="7" flow="840.00" occupancy="5.60" speed="27.96" harmonicMeanSpeed="27.96" length="6.71" nVehEntered="7"/>
    <interval begin="0.00" end="30.00" id="ood4_0" nVehContrib="9" flow="1080.00" occupancy="7.15" speed="27.96" harmonicMeanSpeed="27.96" length="6.67" nVehEntered="9"/>
    <interval begin="0.00" end="30.00" id="ood4_1" nVehContrib="1" flow="120.00" occupancy="1.07" speed="27.96" harmonicMeanSpeed="27.96" length="9.00" nVehEntered="1"/>
    <interval begin="0.00" end="30.00" id="ood4_2" nVehContrib="4" flow="480.00" occupancy="3.34" speed="27.96" harmonicMeanSpeed="27.96" length="7.00" nVehEntered="4"/>
    <interval begin="0.00" end="30.00" id="oood1_0" nVehContrib="2" flow="240.00" occupancy="2.03" speed="27.96" harmonicMeanSpeed="27.96" length="8.50" nVehEntered="2"/>
    <interval begin="0.00" end="30.00" id="oood1_1" nVehContrib="4" flow="480.00" occupancy="2.86" speed="27.96" harmonicMeanSpeed="27.96" length="6.00" nVehEntered="4"/>
    <interval begin="0.00" end="30.00" id="oood1_2" nVehContrib="6" flow="720.00" occupancy="5.72" speed="27.96" harmonicMeanSpeed="27.96" length="8.00" nVehEntered="6"/>
    <interval begin="0.00" end="30.00" id="oood2_0" nVehContrib="6" flow="720.00" occupancy="4.53" speed="27.96" harmonicMeanSpeed="27.96" length="6.33" nVehEntered="6"/>
    <interval begin="0.00" end="30.00" id="oood2_1" nVehContrib="3" flow="360.00" occupancy="2.38" speed="27.96" harmonicMeanSpeed="27.96" length="6.67" nVehEntered="3"/>
    <interval begin="0.00" end="30.00" id="oood2_2" nVehContrib="7" flow="840.00" occupancy="5.72" speed="27.96" harmonicMeanSpeed="27.96" length="6.86" nVehEntered="7"/>
    <interval begin="0.00" end="30.00" id="oood3_0" nVehContrib="2" flow="240.00" occupancy="1.55" speed="27.96" harmonicMeanSpeed="27.96" length="6.50" nVehEntered="2"/>
    <interval begin="0.00" end="30.00" id="oood3_1" nVehContrib="3" flow="360.00" occupancy="2.03" speed="27.96" harmonicMeanSpeed="27.96" length="5.67" nVehEntered="3"/>
    <interval begin="0.00" end="30.00" id="oood3_2" nVehContrib="7" flow="840.00" occupancy="5.60" speed="27.96" harmonicMeanSpeed="27.96" length="6.71" nVehEntered="7"/>
    <interval begin="0.00" end="30.00" id="oood4_0" nVehContrib="9" flow="1080.00" occupancy="7.15" speed="27.96" harmonicMeanSpeed="27.96" length="6.67" nVehEntered="9"/>
    <interval begin="0.00" end="30.00" id="oood4_1" nVehContrib="1" flow="120.00" occupancy="1.07" speed="27.96" harmonicMeanSpeed="27.96" length="9.00" nVehEntered="1"/>
    <interval begin="0.00" end="30.00" id="oood4_2" nVehContrib="5" flow="600.00" occupancy="4.41" speed="27.96" harmonicMeanSpeed="27.96" length="7.40" nVehEntered="5"/>
    <interval begin="0.00" end="30.00" id="ooood1_0" nVehContrib="7" flow="840.00" occupancy="1.92" speed="97.34" harmonicMeanSpeed="96.03" length="8.00" nVehEntered="7"/>
    <interval begin="0.00" end="30.00" id="ooood1_1" nVehContrib="1" flow="120.00" occupancy="0.27" speed="109.50" harmonicMeanSpeed="109.50" length="9.00" nVehEntered="1"/>
    <interval begin="0.00" end="30.00" id="ooood1_2" nVehContrib="5" flow="600.00" occupancy="1.37" speed="70.57" harmonicMeanSpeed="68.69" length="5.80" nVehEntered="5"/>
    <interval begin="0.00" end="30.00" id="ooood2_0" nVehContrib="4" flow="480.00" occupancy="1.10" speed="85.17" harmonicMeanSpeed="82.09" length="7.00" nVehEntered="4"/>
    <interval begin="0.00" end="30.00" id="ooood2_1" nVehContrib="4" flow="480.00" occupancy="1.10" speed="69.96" harmonicMeanSpeed="68.59" length="5.75" nVehEntered="4"/>
    <interval begin="0.00" end="30.00" id="ooood2_2" nVehContrib="10" flow="1200.00" occupancy="2.74" speed="85.17" harmonicMeanSpeed="81.05" length="7.00" nVehEntered="10"/>
    <interval begin="0.00" end="30.00" id="ooood3_0" nVehContrib="7" flow="840.00" occupancy="1.92" speed="74.74" harmonicMeanSpeed="73.30" length="6.14" nVehEntered="7"/>
    <interval begin="0.00" end="30.00" id="ooood3_1" nVehContrib="3" flow="360.00" occupancy="0.82" speed="77.06" harmonicMeanSpeed="71.42" length="6.33" nVehEntered="3"/>
    <interval begin="0.00" end="30.00" id="ooood3_2" nVehContrib="3" flow="360.00" occupancy="0.82" speed="81.11" harmonicMeanSpeed="79.64" length="6.67" nVehEntered="3"/>
    <interval begin="0.00" end="30.00" id="ooood4_0" nVehContrib="6" flow="720.00" occupancy="1.64" speed="73.00" harmonicMeanSpeed="69.90" length="6.00" nVehEntered="6"/>
    <interval begin="0.00" end="30.00" id="ooood4_1" nVehContrib="4" flow="480.00" occupancy="1.10" speed="103.42" harmonicMeanSpeed="103.06" length="8.50" nVehEntered="4"/>
    <interval begin="0.00" end="30.00" id="ooood4_2" nVehContrib="6" flow="720.00" occupancy="1.64" speed="91.25" harmonicMeanSpeed="89.30" length="7.50" nVehEntered="6"/>
    <interval begin="30.00" end="60.00" id="d1_0" nVehContrib="6" flow="720.00" occupancy="4.89" speed="27.96" harmonicMeanSpeed="27.96" length="6.83" nVehEntered="6"/>
    <interval begin="30.00" end="60.00" id="d1_1" nVehContrib="2" flow="240.00" occupancy="1.67" speed="27.96" harmonicMeanSpeed="27.96" length="7.00" nVehEntered="2"/>
    <interval begin="30.00" end="60.00" id="d1_2" nVehContrib="8" flow="960.00" occupancy="6.44" speed="27.96" harmonicMeanSpeed="27.96" length="6.75" nVehEntered="8"/>
    <interval begin="30.00" end="60.00" id="d2_0" nVehContrib="7" flow="840.00" occupancy="6.32" speed="27.96" harmonicMeanSpeed="27.96" length="7.57" nVehEntered="7"/>
    <interval begin="30.00" end="60.00" id="d2_1" nVehContrib="0" flow="0.00" occupancy="0.00" speed="-1.00" harmonicMeanSpeed="-1.00" length="-1.00" nVehEntered="0"/>
    <interval begin="30.00" end="60.00" id="d2_2" nVehContrib="11" flow="1320.00" occupancy="29.18" speed="20.32" harmonicMeanSpeed="7.36" length="6.64" nVehEntered="11"/>
    <interval begin="30.00" end="60.00" id="d3_0" nVehContrib="2" flow="240.00" occupancy="1.67" speed="27.96" harmonicMeanSpeed="27.96" length="7.00" nVehEntered="2"/>
    <interval begin="30.00" end="60.00" id="d3_1" nVehContrib="2" flow="240.00" occupancy="1.31" speed="27.96" harmonicMeanSpeed="27.96" length="5.50" nVehEntered="2"/>
    <interval begin="30.00" end="60.00" id="d3_2" nVehContrib="6" flow="720.00" occupancy="4.89" speed="27.96" harmonicMeanSpeed="27.96" length="6.83" nVehEntered="6"/>
    <interval begin="30.00" end="60.00" id="d4_0" nVehContrib="6" flow="720.00" occupancy="5.13" speed="27.96" harmonicMeanSpeed="27.96" length="7.17" nVehEntered="6"/>
    <interval begin="30.00" end="60.00" id="d4_1" nVehContrib="2" flow="240.00" occupancy="2.15" speed="27.96" harmonicMeanSpeed="27.96" length="9.00" nVehEntered="2"/>
    <interval begin="30.00" end="60.00" id="d4_2" nVehContrib="13" flow="1560.00" occupancy="12.21" speed="26.59" harmonicMeanSpeed="26.10" length="7.31" nVehEntered="13"/>
    <interval begin="30.00" end="60.00" id="od1_0" nVehContrib="6" flow="720.00" occupancy="4.89" speed="27.96" harmonicMeanSpeed="27.96" length="6.83" nVehEntered="6"/>
    <interval begin="30.00" end="60.00" id="od1_1" nVehContrib="2" flow="240.00" occupancy="1.67" speed="27.96" harmonicMeanSpeed="27.96" length="7.00" nVehEntered="2"/>
    <interval begin="30.00" end="60.00" id="od1_2" nVehContrib="8" flow="960.00" occupancy="6.44" speed="27.96" harmonicMeanSpeed="27.96" length="6.75" nVehEntered="8"/>
    <interval begin="30.00" end="60.00" id="od2_0" nVehContrib="7" flow="840.00" occupancy="6.32" speed="27.96" harmonicMeanSpeed="27.96" length="7.57" nVehEntered="7"/>
    <interval begin="30.00" end="60.00" id="od2_1" nVehContrib="1" flow="120.00" occupancy="0.60" speed="27.96" harmonicMeanSpeed="27.96" length="5.00" nVehEntered="1"/>
    <interval begin="30.00" end="60.00" id="od2_2" nVehContrib="11" flow="1320.00" occupancy="8.70" speed="27.96" harmonicMeanSpeed="27.96" length="6.64" nVehEntered="11"/>
    <interval begin="30.00" end="60.00" id="od3_0" nVehContrib="2" flow="240.00" occupancy="1.67" speed="27.96" harmonicMeanSpeed="27.96" length="7.00" nVehEntered="2"/>
    <interval begin="30.00" end="60.00" id="od3_1" nVehContrib="2" flow="240.00" occupancy="1.31" speed="27.96" harmonicMeanSpeed="27.96" length="5.50" nVehEntered="2"/>
    <interval begin="30.00" end="60.00" id="od3_2" nVehContrib="6" flow="720.00" occupancy="4.89" speed="27.96" harmonicMeanSpeed="27.96" length="6.83" nVehEntered="6"/>
    <interval begin="30.00" end="60.00" id="od4_0" nVehContrib="7" flow="840.00" occupancy="5.96" speed="27.96" harmonicMeanSpeed="27.96" length="7.14" nVehEntered="7"/>
    <interval begin="30.00" end="60.00" id="od4_1" nVehContrib="2" flow="240.00" occupancy="2.15" speed="27.96" harmonicMeanSpeed="27.96" length="9.00" nVehEntered="2"/>
    <interval begin="30.00" end="60.00" id="od4_2" nVehContrib="12" flow="1440.00" occupancy="10.37" speed="27.96" harmonicMeanSpeed="27.96" length="7.25" nVehEntered="12"/>
    <interval begin="30.00" end="60.00" id="ood1_0" nVehContrib="6" flow="720.00" occupancy="4.89" speed="27.96" harmonicMeanSpeed="27.96" length="6.83" nVehEntered="6"/>
    <interval begin="30.00" end="60.00" id="ood1_1" nVehContrib="2" flow="240.00" occupancy="1.67" speed="27.96" harmonicMeanSpeed="27.96" length="7.00" nVehEntered="2"/>
    <interval begin="30.00" end="60.00" id="ood1_2" nVehContrib="9" flow="1080.00" occupancy="7.27" speed="27.96" harmonicMeanSpeed="27.96" length="6.78" nVehEntered="9"/>
    <interval begin="30.00" end="60.00" id="ood2_0" nVehContrib="7" flow="840.00" occupancy="6.32" speed="27.96" harmonicMeanSpeed="27.96" length="7.57" nVehEntered="7"/>
    <interval begin="30.00" end="60.00" id="ood2_1" nVehContrib="1" flow="120.00" occupancy="0.60" speed="27.96" harmonicMeanSpeed="27.96" length="5.00" nVehEntered="1"/>
    <interval begin="30.00" end="60.00" id="ood2_2" nVehContrib="11" flow="1320.00" occupancy="8.70" speed="27.96" harmonicMeanSpeed="27.96" length="6.64" nVehEntered="11"/>
    <interval begin="30.00" end="60.00" id="ood3_0" nVehContrib="3" flow="360.00" occupancy="2.62" speed="27.96" harmonicMeanSpeed="27.96" length="7.33" nVehEntered="3"/>
    <interval begin="30.00" end="60.00" id="ood3_1" nVehContrib="1" flow="120.00" occupancy="0.60" speed="27.96" harmonicMeanSpeed="27.96" length="5.00" nVehEntered="1"/>
    <interval begin="30.00" end="60.00" id="ood3_2" nVehContrib="6" flow="720.00" occupancy="4.89" speed="27.96" harmonicMeanSpeed="27.96" length="6.83" nVehEntered="6"/>
    <interval begin="30.00" end="60.00" id="ood4_0" nVehContrib="7" flow="840.00" occupancy="5.96" speed="27.96" harmonicMeanSpeed="27.96" length="7.14" nVehEntered="7"/>
    <interval begin="30.00" end="60.00" id="ood4_1" nVehContrib="2" flow="240.00" occupancy="2.15" speed="27.96" harmonicMeanSpeed="27.96" length="9.00" nVehEntered="2"/>
    <interval begin="30.00" end="60.00" id="ood4_2" nVehContrib="12" flow="1440.00" occupancy="10.37" speed="27.96" harmonicMeanSpeed="27.96" length="7.25" nVehEntered="12"/>
    <interval begin="30.00" end="60.00" id="oood1_0" nVehContrib="6" flow="720.00" occupancy="4.65" speed="27.96" harmonicMeanSpeed="27.96" length="6.50" nVehEntered="6"/>
    <interval begin="30.00" end="60.00" id="oood1_1" nVehContrib="2" flow="240.00" occupancy="1.67" speed="27.96" harmonicMeanSpeed="27.96" length="7.00" nVehEntered="2"/>
    <interval begin="30.00" end="60.00" id="oood1_2" nVehContrib="9" flow="1080.00" occupancy="7.27" speed="27.96" harmonicMeanSpeed="27.96" length="6.78" nVehEntered="9"/>
    <interval begin="30.00" end="60.00" id="oood2_0" nVehContrib="8" flow="960.00" occupancy="7.15" speed="27.96" harmonicMeanSpeed="27.96" length="7.50" nVehEntered="8"/>
    <interval begin="30.00" end="60.00" id="oood2_1" nVehContrib="1" flow="120.00" occupancy="0.60" speed="27.96" harmonicMeanSpeed="27.96" length="5.00" nVehEntered="1"/>
    <interval begin="30.00" end="60.00" id="oood2_2" nVehContrib="10" flow="1200.00" occupancy="7.63" speed="27.96" harmonicMeanSpeed="27.96" length="6.40" nVehEntered="10"/>
    <interval begin="30.00" end="60.00" id="oood3_0" nVehContrib="3" flow="360.00" occupancy="2.62" speed="27.96" harmonicMeanSpeed="27.96" length="7.33" nVehEntered="3"/>
    <interval begin="30.00" end="60.00" id="oood3_1" nVehContrib="1" flow="120.00" occupancy="0.60" speed="27.96" harmonicMeanSpeed="27.96" length="5.00" nVehEntered="1"/>
    <interval begin="30.00" end="60.00" id="oood3_2" nVehContrib="7" flow="840.00" occupancy="5.84" speed="27.96" harmonicMeanSpeed="27.96" length="7.00" nVehEntered="7"/>
    <interval begin="30.00" end="60.00" id="oood4_0" nVehContrib="8" flow="960.00" occupancy="7.03" speed="27.96" harmonicMeanSpeed="27.96" length="7.38" nVehEntered="8"/>
    <interval begin="30.00" end="60.00" id="oood4_1" nVehContrib="2" flow="240.00" occupancy="2.15" speed="27.96" harmonicMeanSpeed="27.96" length="9.00" nVehEntered="2"/>
    <interval begin="30.00" end="60.00" id="oood4_2" nVehContrib="11" flow="1320.00" occupancy="9.30" speed="27.96" harmonicMeanSpeed="27.96" length="7.09" nVehEntered="11"/>
    <interval begin="30.00" end="60.00" id="ooood1_0" nVehContrib="6" flow="720.00" occupancy="1.64" speed="89.23" harmonicMeanSpeed="86.61" length="7.33" nVehEntered="6"/>
    <interval begin="30.00" end="60.00" id="ooood1_1" nVehContrib="5" flow="600.00" occupancy="1.37" speed="75.44" harmonicMeanSpeed="73.42" length="6.20" nVehEntered="5"/>
    <interval begin="30.00" end="60.00" id="ooood1_2" nVehContrib="6" flow="720.00" occupancy="1.64" speed="85.17" harmonicMeanSpeed="81.62" length="7.00" nVehEntered="6"/>
    <interval begin="30.00" end="60.00" id="ooood2_0" nVehContrib="10" flow="1200.00" occupancy="2.74" speed="83.95" harmonicMeanSpeed="80.10" length="6.90" nVehEntered="10"/>
    <interval begin="30.00" end="60.00" id="ooood2_1" nVehContrib="3" flow="360.00" occupancy="0.82" speed="81.11" harmonicMeanSpeed="78.02" length="6.67" nVehEntered="3"/>
    <interval begin="30.00" end="60.00" id="ooood2_2" nVehContrib="4" flow="480.00" occupancy="1.10" speed="76.04" harmonicMeanSpeed="74.60" length="6.25" nVehEntered="4"/>
    <interval begin="30.00" end="60.00" id="ooood3_0" nVehContrib="4" flow="480.00" occupancy="1.10" speed="85.17" harmonicMeanSpeed="84.29" length="7.00" nVehEntered="4"/>
    <interval begin="30.00" end="60.00" id="ooood3_1" nVehContrib="3" flow="360.00" occupancy="0.82" speed="101.39" harmonicMeanSpeed="101.08" length="8.33" nVehEntered="3"/>
    <interval begin="30.00" end="60.00" id="ooood3_2" nVehContrib="5" flow="600.00" occupancy="1.37" speed="85.17" harmonicMeanSpeed="79.52" length="7.00" nVehEntered="5"/>
    <interval begin="30.00" end="60.00" id="ooood4_0" nVehContrib="4" flow="480.00" occupancy="1.10" speed="79.09" harmonicMeanSpeed="75.52" length="6.50" nVehEntered="4"/>
    <interval begin="30.00" end="60.00" id="ooood4_1" nVehContrib="12" flow="1440.00" occupancy="3.29" speed="93.28" harmonicMeanSpeed="88.19" length="7.67" nVehEntered="12"/>
    <interval begin="30.00" end="60.00" id="ooood4_2" nVehContrib="6" flow="720.00" occupancy="1.64" speed="83.14" harmonicMeanSpeed="80.55" length="6.83" nVehEntered="6"/>
    <interval begin="60.00" end="90.00" id="d1_0" nVehContrib="4" flow="480.00" occupancy="3.34" speed="27.96" harmonicMeanSpeed="27.96" length="7.00" nVehEntered="4"/>
    <interval begin="60.00" end="90.00" id="d1_1" nVehContrib="1" flow="120.00" occupancy="1.07" speed="27.96" harmonicMeanSpeed="27.96" length="9.00" nVehEntered="1"/>
    <interval begin="60.00" end="90.00" id="d1_2" nVehContrib="6" flow="720.00" occupancy="4.89" speed="27.96" harmonicMeanSpeed="27.96" length="6.83" nVehEntered="6"/>
    <interval begin="60.00" end="90.00" id="d2_0" nVehContrib="6" flow="720.00" occupancy="4.17" speed="27.96" harmonicMeanSpeed="27.96" length="5.83" nVehEntered="6"/>
    <interval begin="60.00" end="90.00" id="d2_1" nVehContrib="3" flow="360.00" occupancy="2.50" speed="27.96" harmonicMeanSpeed="27.96" length="7.00" nVehEntered="3"/>
    <interval begin="60.00" end="90.00" id="d2_2" nVehContrib="6" flow="720.00" occupancy="5.01" speed="27.96" harmonicMeanSpeed="27.96" length="7.00" nVehEntered="6"/>
    <interval begin="60.00" end="90.00" id="d3_0" nVehContrib="11" flow="1320.00" occupancy="7.75" speed="27.96" harmonicMeanSpeed="27.96" length="5.91" nVehEntered="11"/>
    <interval begin="60.00" end="90.00" id="d3_1" nVehContrib="0" flow="0.00" occupancy="0.00" speed="-1.00" harmonicMeanSpeed="-1.00" length="-1.00" nVehEntered="0"/>
    <interval begin="60.00" end="90.00" id="d3_2" nVehContrib="10" flow="1200.00" occupancy="17.46" speed="25.25" harmonicMeanSpeed="15.11" length="7.00" nVehEntered="10"/>
    <interval begin="60.00" end="90.00" id="d4_0" nVehContrib="9" flow="1080.00" occupancy="7.75" speed="27.96" harmonicMeanSpeed="27.96" length="7.22" nVehEntered="9"/>
    <interval begin="60.00" end="90.00" id="d4_1" nVehContrib="0" flow="0.00" occupancy="0.00" speed="-1.00" harmonicMeanSpeed="-1.00" length="-1.00" nVehEntered="0"/>
    <interval begin="60.00" end="90.00" id="d4_2" nVehContrib="8" flow="960.00" occupancy="6.32" speed="27.96" harmonicMeanSpeed="27.96" length="6.63" nVehEntered="8"/>
    <interval begin="60.00" end="90.00" id="od1_0" nVehContrib="4" flow="480.00" occupancy="3.34" speed="27.96" harmonicMeanSpeed="27.96" length="7.00" nVehEntered="4"/>
    <interval begin="60.00" end="90.00" id="od1_1" nVehContrib="1" flow="120.00" occupancy="1.07" speed="27.96" harmonicMeanSpeed="27.96" length="9.00" nVehEntered="1"/>
    <interval begin="60.00" end="90.00" id="od1_2" nVehContrib="6" flow="720.00" occupancy="4.89" speed="27.96" harmonicMeanSpeed="27.96" length="6.83" nVehEntered="6"/>
    <interval begin="60.00" end="90.00" id="od2_0" nVehContrib="6" flow="720.00" occupancy="4.17" speed="27.96" harmonicMeanSpeed="27.96" length="5.83" nVehEntered="6"/>
    <interval begin="60.00" end="90.00" id="od2_1" nVehContrib="2" flow="240.00" occupancy="1.91" speed="27.96" harmonicMeanSpeed="27.96" length="8.00" nVehEntered="2"/>
    <interval begin="60.00" end="90.00" id="od2_2" nVehContrib="7" flow="840.00" occupancy="5.84" speed="27.96" harmonicMeanSpeed="27.96" length="7.00" nVehEntered="7"/>
    <interval begin="60.00" end="90.00" id="od3_0" nVehContrib="11" flow="1320.00" occupancy="7.75" speed="27.96" harmonicMeanSpeed="27.96" length="5.91" nVehEntered="11"/>
    <interval begin="60.00" end="90.00" id="od3_1" nVehContrib="0" flow="0.00" occupancy="0.00" speed="-1.00" harmonicMeanSpeed="-1.00" length="-1.00" nVehEntered="0"/>
    <interval begin="60.00" end="90.00" id="od3_2" nVehContrib="10" flow="1200.00" occupancy="8.35" speed="27.96" harmonicMeanSpeed="27.96" length="7.00" nVehEntered="10"/>
    <interval begin="60.00" end="90.00" id="od4_0" nVehContrib="8" flow="960.00" occupancy="6.91" speed="27.96" harmonicMeanSpeed="27.96" length="7.25" nVehEntered="8"/>
    <interval begin="60.00" end="90.00" id="od4_1" nVehContrib="0" flow="0.00" occupancy="0.00" speed="-1.00" harmonicMeanSpeed="-1.00" length="-1.00" nVehEntered="0"/>
    <interval begin="60.00" end="90.00" id="od4_2" nVehContrib="9" flow="1080.00" occupancy="7.03" speed="27.96" harmonicMeanSpeed="27.96" length="6.56" nVehEntered="9"/>
    <interval begin="60.00" end="90.00" id="ood1_0" nVehContrib="4" flow="480.00" occupancy="3.34" speed="27.96" harmonicMeanSpeed="27.96" length="7.00" nVehEntered="4"/>
    <interval begin="60.00" end="90.00" id="ood1_1" nVehContrib="1" flow="120.00" occupancy="1.07" speed="27.96" harmonicMeanSpeed="27.96" length="9.00" nVehEntered="1"/>
    <interval begin="60.00" end="90.00" id="ood1_2" nVehContrib="6" flow="720.00" occupancy="4.89" speed="27.96" harmonicMeanSpeed="27.96" length="6.83" nVehEntered="6"/>
    <interval begin="60.00" end="90.00" id="ood2_0" nVehContrib="6" flow="720.00" occupancy="4.17" speed="27.96" harmonicMeanSpeed="27.96" length="5.83" nVehEntered="6"/>
    <interval begin="60.00" end="90.00" id="ood2_1" nVehContrib="3" flow="360.00" occupancy="2.98" speed="27.96" harmonicMeanSpeed="27.96" length="8.33" nVehEntered="3"/>
    <interval begin="60.00" end="90.00" id="ood2_2" nVehContrib="7" flow="840.00" occupancy="5.84" speed="27.96" harmonicMeanSpeed="27.96" length="7.00" nVehEntered="7"/>
    <interval begin="60.00" end="90.00" id="ood3_0" nVehContrib="10" flow="1200.00" occupancy="6.80" speed="27.96" harmonicMeanSpeed="27.96" length="5.70" nVehEntered="10"/>
    <interval begin="60.00" end="90.00" id="ood3_1" nVehContrib="0" flow="0.00" occupancy="0.00" speed="-1.00" harmonicMeanSpeed="-1.00" length="-1.00" nVehEntered="0"/>
    <interval begin="60.00" end="90.00" id="ood3_2" nVehContrib="10" flow="1200.00" occupancy="8.35" speed="27.96" harmonicMeanSpeed="27.96" length="7.00" nVehEntered="10"/>
    <interval begin="60.00" end="90.00" id="ood4_0" nVehContrib="8" flow="960.00" occupancy="6.91" speed="27.96" harmonicMeanSpeed="27.96" length="7.25" nVehEntered="8"/>
    <interval begin="60.00" end="90.00" id="ood4_1" nVehContrib="0" flow="0.00" occupancy="0.00" speed="-1.00" harmonicMeanSpeed="-1.00" length="-1.00" nVehEntered="0"/>
    <interval begin="60.00" end="90.00" id="ood4_2" nVehContrib="9" flow="1080.00" occupancy="7.03" speed="27.96" harmonicMeanSpeed="27.96" length="6.56" nVehEntered="9"/>
    <interval begin="60.00" end="90.00" id="oood1_0" nVehContrib="3" flow="360.00" occupancy="2.62" speed="27.96" harmonicMeanSpeed="27.96" length="7.33" nVehEntered="3"/>
    <interval begin="60.00" end="90.00" id="oood1_1" nVehContrib="1" flow="120.00" occupancy="1.07" speed="27.96" harmonicMeanSpeed="27.96" length="9.00" nVehEntered="1"/>
    <interval begin="60.00" end="90.00" id="oood1_2" nVehContrib="7" flow="840.00" occupancy="5.96" speed="27.96" harmonicMeanSpeed="27.96" length="7.14" nVehEntered="7"/>
    <interval begin="60.00" end="90.00" id="oood2_0" nVehContrib="6" flow="720.00" occupancy="4.17" speed="27.96" harmonicMeanSpeed="27.96" length="5.83" nVehEntered="6"/>
    <interval begin="60.00" end="90.00" id="oood2_1" nVehContrib="3" flow="360.00" occupancy="2.98" speed="27.96" harmonicMeanSpeed="27.96" length="8.33" nVehEntered="3"/>
    <interval begin="60.00" end="90.00" id="oood2_2" nVehContrib="7" flow="840.00" occupancy="5.84" speed="27.96" harmonicMeanSpeed="27.96" length="7.00" nVehEntered="7"/>
    <interval begin="60.00" end="90.00" id="oood3_0" nVehContrib="10" flow="1200.00" occupancy="6.80" speed="27.96" harmonicMeanSpeed="27.96" length="5.70" nVehEntered="10"/>
    <interval begin="60.00" end="90.00" id="oood3_1" nVehContrib="0" flow="0.00" occupancy="0.00" speed="-1.00" harmonicMeanSpeed="-1.00" length="-1.00" nVehEntered="0"/>
    <interval begin="60.00" end="90.00" id="oood3_2" nVehContrib="10" flow="1200.00" occupancy="8.11" speed="27.96" harmonicMeanSpeed="27.96" length="6.80" nVehEntered="10"/>
    <interval begin="60.00" end="90.00" id="oood4_0" nVehContrib="8" flow="960.00" occupancy="6.44" speed="27.96" harmonicMeanSpeed="27.96" length="6.75" nVehEntered="8"/>
    <interval begin="60.00" end="90.00" id="oood4_1" nVehContrib="0" flow="0.00" occupancy="0.00" speed="-1.00" harmonicMeanSpeed="-1.00" length="-1.00" nVehEntered="0"/>
    <interval begin="60.00" end="90.00" id="oood4_2" nVehContrib="9" flow="1080.00" occupancy="7.03" speed="27.96" harmonicMeanSpeed="27.96" length="6.56" nVehEntered="9"/>