<?xml version="1.0" encoding="UTF-8"?>

<!-- generated on 2022-05-31 14:42:52 by Eclipse SUMO sumo Version 1.9.2
<configuration xmlns:xsi="http://www.w3.org/2001/XMLSchema-instance" xsi:noNamespaceSchemaLocation="http://sumo.dlr.de/xsd/sumoConfiguration.xsd">

    <input>
        <net-file value="data/lane3.net.xml"/>
        <route-files value="data/icacc+.rou.xml"/>
        <additional-files value="data/icacc+.det.xml"/>
    </input>

    <output>
        <tripinfo-output value="tripinfo.xml"/>
    </output>

    <time>
        <begin value="0"/>
        <step-length value="0.05"/>
    </time>

    <processing>
        <collision.mingap-factor value="0"/>
        <time-to-teleport value="-1"/>
        <lanechange.duration value="0.5"/>
    </processing>

    <report>
        <verbose value="true"/>
        <no-step-log value="true"/>
    </report>

    <traci_server>
        <remote-port value="49528"/>
    </traci_server>

    <gui_only>
        <start value="true"/>
        <tracker-interval value="0.05"/>
    </gui_only>

</configuration>
-->

<detector xmlns:xsi="http://www.w3.org/2001/XMLSchema-instance" xsi:noNamespaceSchemaLocation="http://sumo.dlr.de/xsd/det_e1_file.xsd">
    <interval begin="0.00" end="30.00" id="d1_0" nVehContrib="3" flow="360.00" occupancy="6.86" speed="11.18" harmonicMeanSpeed="11.18" length="7.67" nVehEntered="3"/>
    <interval begin="0.00" end="30.00" id="d1_1" nVehContrib="0" flow="0.00" occupancy="0.26" speed="-1.00" harmonicMeanSpeed="-1.00" length="-1.00" nVehEntered="1"/>
    <interval begin="0.00" end="30.00" id="d1_2" nVehContrib="4" flow="480.00" occupancy="8.05" speed="11.18" harmonicMeanSpeed="11.18" length="6.75" nVehEntered="4"/>
    <interval begin="0.00" end="30.00" id="d2_0" nVehContrib="4" flow="480.00" occupancy="8.35" speed="11.18" harmonicMeanSpeed="11.18" length="7.00" nVehEntered="4"/>
    <interval begin="0.00" end="30.00" id="d2_1" nVehContrib="0" flow="0.00" occupancy="0.00" speed="-1.00" harmonicMeanSpeed="-1.00" length="-1.00" nVehEntered="0"/>
    <interval begin="0.00" end="30.00" id="d2_2" nVehContrib="3" flow="360.00" occupancy="6.86" speed="11.18" harmonicMeanSpeed="11.18" length="7.67" nVehEntered="3"/>
    <interval begin="0.00" end="30.00" id="d3_0" nVehContrib="1" flow="120.00" occupancy="2.09" speed="11.18" harmonicMeanSpeed="11.18" length="7.00" nVehEntered="1"/>
    <interval begin="0.00" end="30.00" id="d3_1" nVehContrib="0" flow="0.00" occupancy="0.00" speed="-1.00" harmonicMeanSpeed="-1.00" length="-1.00" nVehEntered="0"/>
    <interval begin="0.00" end="30.00" id="d3_2" nVehContrib="2" flow="240.00" occupancy="4.77" speed="11.18" harmonicMeanSpeed="11.18" length="8.00" nVehEntered="2"/>
    <interval begin="0.00" end="30.00" id="d4_0" nVehContrib="4" flow="480.00" occupancy="8.65" speed="11.18" harmonicMeanSpeed="11.18" length="7.25" nVehEntered="4"/>
    <interval begin="0.00" end="30.00" id="d4_1" nVehContrib="2" flow="240.00" occupancy="3.58" speed="11.18" harmonicMeanSpeed="11.18" length="6.00" nVehEntered="2"/>
    <interval begin="0.00" end="30.00" id="d4_2" nVehContrib="3" flow="360.00" occupancy="5.41" speed="11.08" harmonicMeanSpeed="11.08" length="6.00" nVehEntered="3"/>
    <interval begin="0.00" end="30.00" id="od1_0" nVehContrib="3" flow="360.00" occupancy="7.91" speed="11.18" harmonicMeanSpeed="11.18" length="7.67" nVehEntered="4"/>
    <interval begin="0.00" end="30.00" id="od1_1" nVehContrib="1" flow="120.00" occupancy="1.79" speed="11.18" harmonicMeanSpeed="11.18" length="6.00" nVehEntered="1"/>
    <interval begin="0.00" end="30.00" id="od1_2" nVehContrib="4" flow="480.00" occupancy="8.05" speed="11.18" harmonicMeanSpeed="11.18" length="6.75" nVehEntered="4"/>
    <interval begin="0.00" end="30.00" id="od2_0" nVehContrib="4" flow="480.00" occupancy="8.35" speed="11.18" harmonicMeanSpeed="11.18" length="7.00" nVehEntered="4"/>
    <interval begin="0.00" end="30.00" id="od2_1" nVehContrib="0" flow="0.00" occupancy="0.00" speed="-1.00" harmonicMeanSpeed="-1.00" length="-1.00" nVehEntered="0"/>
    <interval begin="0.00" end="30.00" id="od2_2" nVehContrib="3" flow="360.00" occupancy="6.86" speed="11.18" harmonicMeanSpeed="11.18" length="7.67" nVehEntered="3"/>
    <interval begin="0.00" end="30.00" id="od3_0" nVehContrib="1" flow="120.00" occupancy="2.09" speed="11.18" harmonicMeanSpeed="11.18" length="7.00" nVehEntered="1"/>
    <interval begin="0.00" end="30.00" id="od3_1" nVehContrib="0" flow="0.00" occupancy="1.65" speed="-1.00" harmonicMeanSpeed="-1.00" length="-1.00" nVehEntered="1"/>
    <interval begin="0.00" end="30.00" id="od3_2" nVehContrib="3" flow="360.00" occupancy="6.26" speed="11.18" harmonicMeanSpeed="11.18" length="7.00" nVehEntered="3"/>
    <interval begin="0.00" end="30.00" id="od4_0" nVehContrib="4" flow="480.00" occupancy="10.29" speed="11.18" harmonicMeanSpeed="11.18" length="7.25" nVehEntered="5"/>
    <interval begin="0.00" end="30.00" id="od4_1" nVehContrib="2" flow="240.00" occupancy="3.58" speed="11.18" harmonicMeanSpeed="11.18" length="6.00" nVehEntered="2"/>
    <interval begin="0.00" end="30.00" id="od4_2" nVehContrib="3" flow="360.00" occupancy="5.37" speed="11.18" harmonicMeanSpeed="11.18" length="6.00" nVehEntered="3"/>
    <interval begin="0.00" end="30.00" id="ood1_0" nVehContrib="5" flow="600.00" occupancy="10.44" speed="11.18" harmonicMeanSpeed="11.18" length="7.00" nVehEntered="5"/>
    <interval begin="0.00" end="30.00" id="ood1_1" nVehContrib="1" flow="120.00" occupancy="1.79" speed="11.18" harmonicMeanSpeed="11.18" length="6.00" nVehEntered="1"/>
    <interval begin="0.00" end="30.00" id="ood1_2" nVehContrib="4" flow="480.00" occupancy="8.05" speed="11.18" harmonicMeanSpeed="11.18" length="6.75" nVehEntered="4"/>
    <interval begin="0.00" end="30.00" id="ood2_0" nVehContrib="4" flow="480.00" occupancy="8.35" speed="11.18" harmonicMeanSpeed="11.18" length="7.00" nVehEntered="4"/>
    <interval begin="0.00" end="30.00" id="ood2_1" nVehContrib="0" flow="0.00" occupancy="0.00" speed="-1.00" harmonicMeanSpeed="-1.00" length="-1.00" nVehEntered="0"/>
    <interval begin="0.00" end="30.00" id="ood2_2" nVehContrib="4" flow="480.00" occupancy="8.35" speed="11.18" harmonicMeanSpeed="11.18" length="7.00" nVehEntered="4"/>
    <interval begin="0.00" end="30.00" id="ood3_0" nVehContrib="1" flow="120.00" occupancy="2.09" speed="11.18" harmonicMeanSpeed="11.18" length="7.00" nVehEntered="1"/>
    <interval begin="0.00" end="30.00" id="ood3_1" nVehContrib="1" flow="120.00" occupancy="2.39" speed="11.18" harmonicMeanSpeed="11.18" length="8.00" nVehEntered="1"/>
    <interval begin="0.00" end="30.00" id="ood3_2" nVehContrib="4" flow="480.00" occupancy="8.35" speed="11.18" harmonicMeanSpeed="11.18" length="7.00" nVehEntered="4"/>
    <interval begin="0.00" end="30.00" id="ood4_0" nVehContrib="5" flow="600.00" occupancy="11.03" speed="11.18" harmonicMeanSpeed="11.18" length="7.40" nVehEntered="5"/>
    <interval begin="0.00" end="30.00" id="ood4_1" nVehContrib="3" flow="360.00" occupancy="6.26" speed="11.18" harmonicMeanSpeed="11.18" length="7.00" nVehEntered="3"/>
    <interval begin="0.00" end="30.00" id="ood4_2" nVehContrib="4" flow="480.00" occupancy="7.16" speed="11.18" harmonicMeanSpeed="11.18" length="6.00" nVehEntered="4"/>
    <interval begin="0.00" end="30.00" id="oood1_0" nVehContrib="5" flow="600.00" occupancy="10.44" speed="11.18" harmonicMeanSpeed="11.18" length="7.00" nVehEntered="5"/>
    <interval begin="0.00" end="30.00" id="oood1_1" nVehContrib="1" flow="120.00" occupancy="1.79" speed="11.18" harmonicMeanSpeed="11.18" length="6.00" nVehEntered="1"/>
    <interval begin="0.00" end="30.00" id="oood1_2" nVehContrib="4" flow="480.00" occupancy="8.05" speed="11.18" harmonicMeanSpeed="11.18" length="6.75" nVehEntered="4"/>
    <interval begin="0.00" end="30.00" id="oood2_0" nVehContrib="4" flow="480.00" occupancy="8.35" speed="11.18" harmonicMeanSpeed="11.18" length="7.00" nVehEntered="4"/>
    <interval begin="0.00" end="30.00" id="oood2_1" nVehContrib="0" flow="0.00" occupancy="0.00" speed="-1.00" harmonicMeanSpeed="-1.00" length="-1.00" nVehEntered="0"/>
    <interval begin="0.00" end="30.00" id="oood2_2" nVehContrib="4" flow="480.00" occupancy="8.35" speed="11.18" harmonicMeanSpeed="11.18" length="7.00" nVehEntered="4"/>
    <interval begin="0.00" end="30.00" id="oood3_0" nVehContrib="1" flow="120.00" occupancy="2.09" speed="11.18" harmonicMeanSpeed="11.18" length="7.00" nVehEntered="1"/>
    <interval begin="0.00" end="30.00" id="oood3_1" nVehContrib="1" flow="120.00" occupancy="2.39" speed="11.18" harmonicMeanSpeed="11.18" length="8.00" nVehEntered="1"/>
    <interval begin="0.00" end="30.00" id="oood3_2" nVehContrib="5" flow="600.00" occupancy="11.03" speed="11.18" harmonicMeanSpeed="11.18" length="7.40" nVehEntered="5"/>
    <interval begin="0.00" end="30.00" id="oood4_0" nVehContrib="5" flow="600.00" occupancy="11.05" speed="11.16" harmonicMeanSpeed="11.16" length="7.40" nVehEntered="5"/>
    <interval begin="0.00" end="30.00" id="oood4_1" nVehContrib="3" flow="360.00" occupancy="6.26" speed="11.18" harmonicMeanSpeed="11.18" length="7.00" nVehEntered="3"/>
    <interval begin="0.00" end="30.00" id="oood4_2" nVehContrib="4" flow="480.00" occupancy="7.16" speed="11.18" harmonicMeanSpeed="11.18" length="6.00" nVehEntered="4"/>
    <interval begin="0.00" end="30.00" id="ooood1_0" nVehContrib="5" flow="600.00" occupancy="2.18" speed="52.11" harmonicMeanSpeed="51.09" length="6.80" nVehEntered="5"/>
    <interval begin="0.00" end="30.00" id="ooood1_1" nVehContrib="3" flow="360.00" occupancy="1.31" speed="50.88" harmonicMeanSpeed="49.91" length="6.67" nVehEntered="3"/>
    <interval begin="0.00" end="30.00" id="ooood1_2" nVehContrib="4" flow="480.00" occupancy="1.74" speed="53.64" harmonicMeanSpeed="51.36" length="7.00" nVehEntered="4"/>
    <interval begin="0.00" end="30.00" id="ooood2_0" nVehContrib="2" flow="240.00" occupancy="0.87" speed="57.47" harmonicMeanSpeed="57.22" length="7.50" nVehEntered="2"/>
    <interval begin="0.00" end="30.00" id="ooood2_1" nVehContrib="6" flow="720.00" occupancy="2.61" speed="54.92" harmonicMeanSpeed="52.81" length="7.17" nVehEntered="6"/>
    <interval begin="0.00" end="30.00" id="ooood2_2" nVehContrib="3" flow="360.00" occupancy="1.31" speed="51.09" harmonicMeanSpeed="50.16" length="6.67" nVehEntered="3"/>
    <interval begin="0.00" end="30.00" id="ooood3_0" nVehContrib="5" flow="600.00" occupancy="2.18" speed="56.70" harmonicMeanSpeed="54.43" length="7.40" nVehEntered="5"/>
    <interval begin="0.00" end="30.00" id="ooood3_1" nVehContrib="2" flow="240.00" occupancy="0.87" speed="57.47" harmonicMeanSpeed="57.22" length="7.50" nVehEntered="2"/>
    <interval begin="0.00" end="30.00" id="ooood3_2" nVehContrib="1" flow="120.00" occupancy="0.44" speed="45.98" harmonicMeanSpeed="45.98" length="6.00" nVehEntered="1"/>
    <interval begin="0.00" end="30.00" id="ooood4_0" nVehContrib="5" flow="600.00" occupancy="2.18" speed="47.49" harmonicMeanSpeed="45.35" length="6.20" nVehEntered="5"/>
    <interval begin="0.00" end="30.00" id="ooood4_1" nVehContrib="5" flow="600.00" occupancy="2.18" speed="56.70" harmonicMeanSpeed="56.46" length="7.40" nVehEntered="5"/>
    <interval begin="0.00" end="30.00" id="ooood4_2" nVehContrib="3" flow="360.00" occupancy="1.31" speed="48.53" harmonicMeanSpeed="46.76" length="6.33" nVehEntered="3"/>
    <interval begin="30.00" end="60.00" id="d1_0" nVehContrib="4" flow="480.00" occupancy="7.75" speed="11.18" harmonicMeanSpeed="11.18" length="6.50" nVehEntered="4"/>
    <interval begin="30.00" end="60.00" id="d1_1" nVehContrib="2" flow="240.00" occupancy="3.91" speed="11.18" harmonicMeanSpeed="11.18" length="7.00" nVehEntered="1"/>
    <interval begin="30.00" end="60.00" id="d1_2" nVehContrib="4" flow="480.00" occupancy="7.67" speed="11.18" harmonicMeanSpeed="11.18" length="5.50" nVehEntered="5"/>
    <interval begin="30.00" end="60.00" id="d2_0" nVehContrib="4" flow="480.00" occupancy="8.53" speed="10.87" harmonicMeanSpeed="10.84" length="7.00" nVehEntered="4"/>
    <interval begin="30.00" end="60.00" id="d2_1" nVehContrib="2" flow="240.00" occupancy="5.07" speed="11.18" harmonicMeanSpeed="11.18" length="8.50" nVehEntered="2"/>
    <interval begin="30.00" end="60.00" id="d2_2" nVehContrib="3" flow="360.00" occupancy="5.93" speed="11.18" harmonicMeanSpeed="11.18" length="6.33" nVehEntered="4"/>
    <interval begin="30.00" end="60.00" id="d3_0" nVehContrib="3" flow="360.00" occupancy="6.56" speed="11.18" harmonicMeanSpeed="11.18" length="7.33" nVehEntered="3"/>
    <interval begin="30.00" end="60.00" id="d3_1" nVehContrib="4" flow="480.00" occupancy="9.84" speed="11.18" harmonicMeanSpeed="11.18" length="8.25" nVehEntered="4"/>
    <interval begin="30.00" end="60.00" id="d3_2" nVehContrib="6" flow="720.00" occupancy="25.16" speed="9.25" harmonicMeanSpeed="5.08" length="6.83" nVehEntered="6"/>
    <interval begin="30.00" end="60.00" id="d4_0" nVehContrib="3" flow="360.00" occupancy="6.26" speed="11.18" harmonicMeanSpeed="11.18" length="7.00" nVehEntered="3"/>
    <interval begin="30.00" end="60.00" id="d4_1" nVehContrib="3" flow="360.00" occupancy="6.26" speed="11.18" harmonicMeanSpeed="11.18" length="7.00" nVehEntered="3"/>
    <interval begin="30.00" end="60.00" id="d4_2" nVehContrib="3" flow="360.00" occupancy="6.26" speed="11.18" harmonicMeanSpeed="11.18" length="7.00" nVehEntered="3"/>
    <interval begin="30.00" end="60.00" id="od1_0" nVehContrib="4" flow="480.00" occupancy="6.70" speed="11.18" harmonicMeanSpeed="11.18" length="6.50" nVehEntered="3"/>
    <interval begin="30.00" end="60.00" id="od1_1" nVehContrib="1" flow="120.00" occupancy="2.39" speed="11.18" harmonicMeanSpeed="11.18" length="8.00" nVehEntered="1"/>
    <interval begin="30.00" end="60.00" id="od1_2" nVehContrib="5" flow="600.00" occupancy="8.35" speed="11.18" harmonicMeanSpeed="11.18" length="5.60" nVehEntered="5"/>
    <interval begin="30.00" end="60.00" id="od2_0" nVehContrib="4" flow="480.00" occupancy="9.40" speed="11.18" harmonicMeanSpeed="11.18" length="7.00" nVehEntered="5"/>
    <interval begin="30.00" end="60.00" id="od2_1" nVehContrib="2" flow="240.00" occupancy="5.07" speed="11.18" harmonicMeanSpeed="11.18" length="8.50" nVehEntered="2"/>
    <interval begin="30.00" end="60.00" id="od2_2" nVehContrib="4" flow="480.00" occupancy="7.45" speed="11.18" harmonicMeanSpeed="11.18" length="6.25" nVehEntered="4"/>
    <interval begin="30.00" end="60.00" id="od3_0" nVehContrib="4" flow="480.00" occupancy="8.94" speed="11.18" harmonicMeanSpeed="11.18" length="7.50" nVehEntered="4"/>
    <interval begin="30.00" end="60.00" id="od3_1" nVehContrib="4" flow="480.00" occupancy="8.19" speed="11.18" harmonicMeanSpeed="11.18" length="8.25" nVehEntered="3"/>
    <interval begin="30.00" end="60.00" id="od3_2" nVehContrib="5" flow="600.00" occupancy="10.73" speed="11.18" harmonicMeanSpeed="11.18" length="7.20" nVehEntered="5"/>
    <interval begin="30.00" end="60.00" id="od4_0" nVehContrib="4" flow="480.00" occupancy="7.00" speed="11.18" harmonicMeanSpeed="11.18" length="7.25" nVehEntered="3"/>
    <interval begin="30.00" end="60.00" id="od4_1" nVehContrib="3" flow="360.00" occupancy="6.26" speed="11.18" harmonicMeanSpeed="11.18" length="7.00" nVehEntered="3"/>
    <interval begin="30.00" end="60.00" id="od4_2" nVehContrib="3" flow="360.00" occupancy="6.26" speed="11.18" harmonicMeanSpeed="11.18" length="7.00" nVehEntered="3"/>
    <interval begin="30.00" end="60.00" id="ood1_0" nVehContrib="2" flow="240.00" occupancy="4.17" speed="11.18" harmonicMeanSpeed="11.18" length="7.00" nVehEntered="2"/>
    <interval begin="30.00" end="60.00" id="ood1_1" nVehContrib="1" flow="120.00" occupancy="2.39" speed="11.18" harmonicMeanSpeed="11.18" length="8.00" nVehEntered="1"/>
    <interval begin="30.00" end="60.00" id="ood1_2" nVehContrib="5" flow="600.00" occupancy="8.35" speed="11.18" harmonicMeanSpeed="11.18" length="5.60" nVehEntered="5"/>
    <interval begin="30.00" end="60.00" id="ood2_0" nVehContrib="5" flow="600.00" occupancy="10.14" speed="11.18" harmonicMeanSpeed="11.18" length="6.80" nVehEntered="5"/>
    <interval begin="30.00" end="60.00" id="ood2_1" nVehContrib="2" flow="240.00" occupancy="5.07" speed="11.18" harmonicMeanSpeed="11.18" length="8.50" nVehEntered="2"/>
    <interval begin="30.00" end="60.00" id="ood2_2" nVehContrib="4" flow="480.00" occupancy="8.35" speed="11.18" harmonicMeanSpeed="11.18" length="7.00" nVehEntered="4"/>
    <interval begin="30.00" end="60.00" id="ood3_0" nVehContrib="4" flow="480.00" occupancy="8.94" speed="11.18" harmonicMeanSpeed="11.18" length="7.50" nVehEntered="4"/>
    <interval begin="30.00" end="60.00" id="ood3_1" nVehContrib="3" flow="360.00" occupancy="7.45" speed="11.18" harmonicMeanSpeed="11.18" length="8.33" nVehEntered="3"/>
    <interval begin="30.00" end="60.00" id="ood3_2" nVehContrib="5" flow="600.00" occupancy="10.73" speed="11.18" harmonicMeanSpeed="11.18" length="7.20" nVehEntered="5"/>
    <interval begin="30.00" end="60.00" id="ood4_0" nVehContrib="3" flow="360.00" occupancy="6.26" speed="11.18" harmonicMeanSpeed="11.18" length="7.00" nVehEntered="3"/>
    <interval begin="30.00" end="60.00" id="ood4_1" nVehContrib="2" flow="240.00" occupancy="3.58" speed="11.18" harmonicMeanSpeed="11.18" length="6.00" nVehEntered="2"/>
    <interval begin="30.00" end="60.00" id="ood4_2" nVehContrib="3" flow="360.00" occupancy="6.86" speed="11.18" harmonicMeanSpeed="11.18" length="7.67" nVehEntered="3"/>
    <interval begin="30.00" end="60.00" id="oood1_0" nVehContrib="2" flow="240.00" occupancy="4.17" speed="11.18" harmonicMeanSpeed="11.18" length="7.00" nVehEntered="2"/>
    <interval begin="30.00" end="60.00" id="oood1_1" nVehContrib="1" flow="120.00" occupancy="2.39" speed="11.18" harmonicMeanSpeed="11.18" length="8.00" nVehEntered="1"/>
    <interval begin="30.00" end="60.00" id="oood1_2" nVehContrib="5" flow="600.00" occupancy="8.35" speed="11.18" harmonicMeanSpeed="11.18" length="5.60" nVehEntered="5"/>
    <interval begin="30.00" end="60.00" id="oood2_0" nVehContrib="5" flow="600.00" occupancy="10.15" speed="11.17" harmonicMeanSpeed="11.17" length="6.80" nVehEntered="5"/>
    <interval begin="30.00" end="60.00" id="oood2_1" nVehContrib="2" flow="240.00" occupancy="5.07" speed="11.18" harmonicMeanSpeed="11.18" length="8.50" nVehEntered="2"/>
    <interval begin="30.00" end="60.00" id="oood2_2" nVehContrib="5" flow="600.00" occupancy="10.73" speed="11.18" harmonicMeanSpeed="11.18" length="7.20" nVehEntered="5"/>
    <interval begin="30.00" end="60.00" id="oood3_0" nVehContrib="4" flow="480.00" occupancy="8.95" speed="11.17" harmonicMeanSpeed="11.17" length="7.50" nVehEntered="4"/>
    <interval begin="30.00" end="60.00" id="oood3_1" nVehContrib="3" flow="360.00" occupancy="7.45" speed="11.18" harmonicMeanSpeed="11.18" length="8.33" nVehEntered="3"/>
    <interval begin="30.00" end="60.00" id="oood3_2" nVehContrib="4" flow="480.00" occupancy="8.05" speed="11.18" harmonicMeanSpeed="11.18" length="6.75" nVehEntered="4"/>
    <interval begin="30.00" end="60.00" id="oood4_0" nVehContrib="3" flow="360.00" occupancy="6.26" speed="11.18" harmonicMeanSpeed="11.18" length="7.00" nVehEntered="3"/>
    <interval begin="30.00" end="60.00" id="oood4_1" nVehContrib="2" flow="240.00" occupancy="3.58" speed="11.18" harmonicMeanSpeed="11.18" length="6.00" nVehEntered="2"/>
    <interval begin="30.00" end="60.00" id="oood4_2" nVehContrib="3" flow="360.00" occupancy="6.90" speed="11.11" harmonicMeanSpeed="11.11" length="7.67" nVehEntered="3"/>
    <interval begin="30.00" end="60.00" id="ooood1_0" nVehContrib="2" flow="240.00" occupancy="0.87" speed="53.64" harmonicMeanSpeed="52.54" length="7.00" nVehEntered="2"/>
    <interval begin="30.00" end="60.00" id="ooood1_1" nVehContrib="5" flow="600.00" occupancy="2.18" speed="41.25" harmonicMeanSpeed="40.95" length="5.40" nVehEntered="5"/>
    <interval begin="30.00" end="60.00" id="ooood1_2" nVehContrib="2" flow="240.00" occupancy="0.87" speed="53.64" harmonicMeanSpeed="52.54" length="7.00" nVehEntered="2"/>
    <interval begin="30.00" end="60.00" id="ooood2_0" nVehContrib="3" flow="360.00" occupancy="1.31" speed="53.64" harmonicMeanSpeed="52.90" length="7.00" nVehEntered="3"/>
    <interval begin="30.00" end="60.00" id="ooood2_1" nVehContrib="5" flow="600.00" occupancy="2.18" speed="50.55" harmonicMeanSpeed="49.24" length="6.60" nVehEntered="5"/>
    <interval begin="30.00" end="60.00" id="ooood2_2" nVehContrib="2" flow="240.00" occupancy="0.87" speed="68.89" harmonicMeanSpeed="68.89" length="9.00" nVehEntered="2"/>
    <interval begin="30.00" end="60.00" id="ooood3_0" nVehContrib="5" flow="600.00" occupancy="2.18" speed="56.70" harmonicMeanSpeed="55.65" length="7.40" nVehEntered="5"/>
    <interval begin="30.00" end="60.00" id="ooood3_1" nVehContrib="1" flow="120.00" occupancy="0.44" speed="68.97" harmonicMeanSpeed="68.97" length="9.00" nVehEntered="1"/>
    <interval begin="30.00" end="60.00" id="ooood3_2" nVehContrib="6" flow="720.00" occupancy="2.88" speed="50.98" harmonicMeanSpeed="49.78" length="7.17" nVehEntered="6"/>
    <interval begin="30.00" end="60.00" id="ooood4_0" nVehContrib="4" flow="480.00" occupancy="2.01" speed="45.82" harmonicMeanSpeed="44.48" length="6.75" nVehEntered="4"/>
    <interval begin="30.00" end="60.00" id="ooood4_1" nVehContrib="1" flow="120.00" occupancy="0.44" speed="38.31" harmonicMeanSpeed="38.31" length="5.00" nVehEntered="1"/>
    <interval begin="30.00" end="60.00" id="ooood4_2" nVehContrib="3" flow="360.00" occupancy="1.31" speed="61.30" harmonicMeanSpeed="61.30" length="8.00" nVehEntered="3"/>
    <interval begin="60.00" end="90.00" id="d1_0" nVehContrib="8" flow="960.00" occupancy="21.21" speed="10.96" harmonicMeanSpeed="10.92" length="6.88" nVehEntered="9"/>
    <interval begin="60.00" end="90.00" id="d1_1" nVehContrib="0" flow="0.00" occupancy="0.00" speed="-1.00" harmonicMeanSpeed="-1.00" length="-1.00" nVehEntered="0"/>
    <interval begin="60.00" end="90.00" id="d1_2" nVehContrib="5" flow="600.00" occupancy="8.20" speed="11.10" harmonicMeanSpeed="11.09" length="6.20" nVehEntered="4"/>
    <interval begin="60.00" end="90.00" id="d2_0" nVehContrib="5" flow="600.00" occupancy="8.35" speed="11.18" harmonicMeanSpeed="11.18" length="5.60" nVehEntered="5"/>
    <interval begin="60.00" end="90.00" id="d2_1" nVehContrib="1" flow="120.00" occupancy="1.49" speed="11.18" harmonicMeanSpeed="11.18" length="5.00" nVehEntered="1"/>
    <interval begin="60.00" end="90.00" id="d2_2" nVehContrib="6" flow="720.00" occupancy="16.41" speed="9.97" harmonicMeanSpeed="9.41" length="7.67" nVehEntered="5"/>
    <interval begin="60.00" end="90.00" id="d3_0" nVehContrib="3" flow="360.00" occupancy="6.26" speed="11.18" harmonicMeanSpeed="11.18" length="7.00" nVehEntered="3"/>
    <interval begin="60.00" end="90.00" id="d3_1" nVehContrib="3" flow="360.00" occupancy="4.77" speed="11.18" harmonicMeanSpeed="11.18" length="5.33" nVehEntered="3"/>
    <interval begin="60.00" end="90.00" id="d3_2" nVehContrib="5" flow="600.00" occupancy="11.03" speed="11.18" harmonicMeanSpeed="11.18" length="7.40" nVehEntered="5"/>
    <interval begin="60.00" end="90.00" id="d4_0" nVehContrib="3" flow="360.00" occupancy="6.57" speed="11.18" harmonicMeanSpeed="11.18" length="6.00" nVehEntered="4"/>
    <interval begin="60.00" end="90.00" id="d4_1" nVehContrib="1" flow="120.00" occupancy="2.39" speed="11.18" harmonicMeanSpeed="11.18" length="8.00" nVehEntered="1"/>
    <interval begin="60.00" end="90.00" id="d4_2" nVehContrib="5" flow="600.00" occupancy="27.70" speed="11.06" harmonicMeanSpeed="11.06" length="7.00" nVehEntered="6"/>
    <interval begin="60.00" end="90.00" id="od1_0" nVehContrib="9" flow="1080.00" occupancy="18.82" speed="11.16" harmonicMeanSpeed="11.16" length="7.00" nVehEntered="9"/>
    <interval begin="60.00" end="90.00" id="od1_1" nVehContrib="0" flow="0.00" occupancy="0.00" speed="-1.00" harmonicMeanSpeed="-1.00" length="-1.00" nVehEntered="0"/>
    <interval begin="60.00" end="90.00" id="od1_2" nVehContrib="4" flow="480.00" occupancy="7.45" speed="11.18" harmonicMeanSpeed="11.18" length="6.25" nVehEntered="4"/>
    <interval begin="60.00" end="90.00" id="od2_0" nVehContrib="6" flow="720.00" occupancy="9.98" speed="11.18" harmonicMeanSpeed="11.18" length="6.17" nVehEntered="5"/>
    <interval begin="60.00" end="90.00" id="od2_1" nVehContrib="1" flow="120.00" occupancy="1.49" speed="11.18" harmonicMeanSpeed="11.18" length="5.00" nVehEntered="1"/>
    <interval begin="60.00" end="90.00" id="od2_2" nVehContrib="5" flow="600.00" occupancy="13.87" speed="11.18" harmonicMeanSpeed="11.18" length="8.00" nVehEntered="6"/>
    <interval begin="60.00" end="90.00" id="od3_0" nVehContrib="3" flow="360.00" occupancy="5.37" speed="11.18" harmonicMeanSpeed="11.18" length="6.00" nVehEntered="3"/>
    <interval begin="60.00" end="90.00" id="od3_1" nVehContrib="3" flow="360.00" occupancy="4.77" speed="11.18" harmonicMeanSpeed="11.18" length="5.33" nVehEntered="3"/>
    <interval begin="60.00" end="90.00" id="od3_2" nVehContrib="6" flow="720.00" occupancy="13.12" speed="11.18" harmonicMeanSpeed="11.18" length="7.33" nVehEntered="6"/>
    <interval begin="60.00" end="90.00" id="od4_0" nVehContrib="3" flow="360.00" occupancy="6.12" speed="11.18" harmonicMeanSpeed="11.18" length="5.33" nVehEntered="4"/>
    <interval begin="60.00" end="90.00" id="od4_1" nVehContrib="1" flow="120.00" occupancy="2.39" speed="11.18" harmonicMeanSpeed="11.18" length="8.00" nVehEntered="1"/>
    <interval begin="60.00" end="90.00" id="od4_2" nVehContrib="6" flow="720.00" occupancy="13.12" speed="11.18" harmonicMeanSpeed="11.18" length="7.33" nVehEntered="6"/>
    <interval begin="60.00" end="90.00" id="ood1_0" nVehContrib="9" flow="1080.00" occupancy="18.78" speed="11.18" harmonicMeanSpeed="11.18" length="7.00" nVehEntered="9"/>
    <interval begin="60.00" end="90.00" id="ood1_1" nVehContrib="0" flow="0.00" occupancy="0.00" speed="-1.00" harmonicMeanSpeed="-1.00" length="-1.00" nVehEntered="0"/>
    <interval begin="60.00" end="90.00" id="ood1_2" nVehContrib="4" flow="480.00" occupancy="7.45" speed="11.18" harmonicMeanSpeed="11.18" length="6.25" nVehEntered="4"/>
    <interval begin="60.00" end="90.00" id="ood2_0" nVehContrib="5" flow="600.00" occupancy="9.24" speed="11.18" harmonicMeanSpeed="11.18" length="6.20" nVehEntered="5"/>
    <interval begin="60.00" end="90.00" id="ood2_1" nVehContrib="1" flow="120.00" occupancy="1.49" speed="11.18" harmonicMeanSpeed="11.18" length="5.00" nVehEntered="1"/>
    <interval begin="60.00" end="90.00" id="ood2_2" nVehContrib="5" flow="600.00" occupancy="12.22" speed="11.18" harmonicMeanSpeed="11.18" length="8.20" nVehEntered="5"/>
    <interval begin="60.00" end="90.00" id="ood3_0" nVehContrib="4" flow="480.00" occupancy="6.86" speed="11.18" harmonicMeanSpeed="11.18" length="5.75" nVehEntered="4"/>
    <interval begin="60.00" end="90.00" id="ood3_1" nVehContrib="3" flow="360.00" occupancy="4.77" speed="11.18" harmonicMeanSpeed="11.18" length="5.33" nVehEntered="3"/>
    <interval begin="60.00" end="90.00" id="ood3_2" nVehContrib="5" flow="600.00" occupancy="11.03" speed="11.18" harmonicMeanSpeed="11.18" length="7.40" nVehEntered="5"/>
    <interval begin="60.00" end="90.00" id="ood4_0" nVehContrib="4" flow="480.00" occupancy="6.86" speed="11.18" harmonicMeanSpeed="11.18" length="5.75" nVehEntered="4"/>
    <interval begin="60.00" end="90.00" id="ood4_1" nVehContrib="1" flow="120.00" occupancy="2.39" speed="11.18" harmonicMeanSpeed="11.18" length="8.00" nVehEntered="1"/>
    <interval begin="60.00" end="90.00" id="ood4_2" nVehContrib="5" flow="600.00" occupancy="10.73" speed="11.18" harmonicMeanSpeed="11.18" length="7.20" nVehEntered="5"/>
    <interval begin="60.00" end="90.00" id="oood1_0" nVehContrib="9" flow="1080.00" occupancy="18.80" speed="11.17" harmonicMeanSpeed="11.17" length="7.00" nVehEntered="9"/>
    <interval begin="60.00" end="90.00" id="oood1_1" nVehContrib="0" flow="0.00" occupancy="0.00" speed="-1.00" harmonicMeanSpeed="-1.00" length="-1.00" nVehEntered="0"/>
    <interval begin="60.00" end="90.00" id="oood1_2" nVehContrib="4" flow="480.00" occupancy="7.45" speed="11.18" harmonicMeanSpeed="11.18" length="6.25" nVehEntered="4"/>
    <interval begin="60.00" end="90.00" id="oood2_0" nVehContrib="5" flow="600.00" occupancy="9.24" speed="11.18" harmonicMeanSpeed="11.18" length="6.20" nVehEntered="5"/>
    <interval begin="60.00" end="90.00" id="oood2_1" nVehContrib="1" flow="120.00" occupancy="1.49" speed="11.18" harmonicMeanSpeed="11.18" length="5.00" nVehEntered="1"/>
    <interval begin="60.00" end="90.00" id="oood2_2" nVehContrib="4" flow="480.00" occupancy="9.84" speed="11.18" harmonicMeanSpeed="11.18" length="8.25" nVehEntered="4"/>
    <interval begin="60.00" end="90.00" id="oood3_0" nVehContrib="5" flow="600.00" occupancy="8.94" speed="11.18" harmonicMeanSpeed="11.18" length="6.00" nVehEntered="5"/>
    <interval begin="60.00" end="90.00" id="oood3_1" nVehContrib="3" flow="360.00" occupancy="4.77" speed="11.18" harmonicMeanSpeed="11.18" length="5.33" nVehEntered="3"/>
    <interval begin="60.00" end="90.00" id="oood3_2" nVehContrib="5" flow="600.00" occupancy="11.04" speed="11.18" harmonicMeanSpeed="11.18" length="7.40" nVehEntered="5"/>
    <interval begin="60.00" end="90.00" id="oood4_0" nVehContrib="4" flow="480.00" occupancy="6.86" speed="11.18" harmonicMeanSpeed="11.18" length="5.75" nVehEntered="4"/>
    <interval begin="60.00" end="90.00" id="oood4_1" nVehContrib="1" flow="120.00" occupancy="2.39" speed="11.18" harmonicMeanSpeed="11.18" length="8.00" nVehEntered="1"/>
    <interval begin="60.00" end="90.00" id="oood4_2" nVehContrib="5" flow="600.00" occupancy="10.73" speed="11.18" harmonicMeanSpeed="11.18" length="7.20" nVehEntered="5"/>