<?xml version="1.0" encoding="UTF-8"?>

<!-- generated on 04/24/21 19:04:53 by Eclipse SUMO GUI Version 1.8.0
<configuration xmlns:xsi="http://www.w3.org/2001/XMLSchema-instance" xsi:noNamespaceSchemaLocation="http://sumo.dlr.de/xsd/sumoConfiguration.xsd">

    <input>
        <net-file value="data/lane3.net.xml"/>
        <route-files value="data/icacc+.rou.xml"/>
        <additional-files value="data/icacc+.det.xml"/>
    </input>

    <output>
        <tripinfo-output value="tripinfo.xml"/>
    </output>

    <time>
        <begin value="0"/>
        <step-length value="0.1"/>
    </time>

    <processing>
        <collision.mingap-factor value="0"/>
        <time-to-teleport value="-1"/>
        <lanechange.duration value="0.5"/>
    </processing>

    <report>
        <verbose value="true"/>
        <no-step-log value="true"/>
    </report>

    <traci_server>
        <remote-port value="4510"/>
    </traci_server>

    <gui_only>
        <start value="true"/>
        <tracker-interval value="0.1"/>
    </gui_only>

</configuration>
-->

<detector xmlns:xsi="http://www.w3.org/2001/XMLSchema-instance" xsi:noNamespaceSchemaLocation="http://sumo.dlr.de/xsd/det_e1_file.xsd">
    <interval begin="0.00" end="30.00" id="d1_0" nVehContrib="0" flow="0.00" occupancy="0.00" speed="-1.00" harmonicMeanSpeed="-1.00" length="-1.00" nVehEntered="0"/>
    <interval begin="0.00" end="30.00" id="d1_1" nVehContrib="1" flow="120.00" occupancy="2.09" speed="11.18" harmonicMeanSpeed="11.18" length="7.00" nVehEntered="1"/>
    <interval begin="0.00" end="30.00" id="d1_2" nVehContrib="0" flow="0.00" occupancy="0.00" speed="-1.00" harmonicMeanSpeed="-1.00" length="-1.00" nVehEntered="0"/>
    <interval begin="0.00" end="30.00" id="d2_0" nVehContrib="0" flow="0.00" occupancy="0.00" speed="-1.00" harmonicMeanSpeed="-1.00" length="-1.00" nVehEntered="0"/>
    <interval begin="0.00" end="30.00" id="d2_1" nVehContrib="1" flow="120.00" occupancy="2.39" speed="11.18" harmonicMeanSpeed="11.18" length="8.00" nVehEntered="1"/>
    <interval begin="0.00" end="30.00" id="d2_2" nVehContrib="1" flow="120.00" occupancy="2.68" speed="11.18" harmonicMeanSpeed="11.18" length="9.00" nVehEntered="1"/>
    <interval begin="0.00" end="30.00" id="d3_0" nVehContrib="1" flow="120.00" occupancy="1.79" speed="11.18" harmonicMeanSpeed="11.18" length="6.00" nVehEntered="1"/>
    <interval begin="0.00" end="30.00" id="d3_1" nVehContrib="0" flow="0.00" occupancy="0.00" speed="-1.00" harmonicMeanSpeed="-1.00" length="-1.00" nVehEntered="0"/>
    <interval begin="0.00" end="30.00" id="d3_2" nVehContrib="2" flow="240.00" occupancy="3.88" speed="11.18" harmonicMeanSpeed="11.18" length="6.50" nVehEntered="2"/>
    <interval begin="0.00" end="30.00" id="d4_0" nVehContrib="0" flow="0.00" occupancy="0.00" speed="-1.00" harmonicMeanSpeed="-1.00" length="-1.00" nVehEntered="0"/>
    <interval begin="0.00" end="30.00" id="d4_1" nVehContrib="0" flow="0.00" occupancy="0.00" speed="-1.00" harmonicMeanSpeed="-1.00" length="-1.00" nVehEntered="0"/>
    <interval begin="0.00" end="30.00" id="d4_2" nVehContrib="3" flow="360.00" occupancy="6.86" speed="11.18" harmonicMeanSpeed="11.18" length="7.67" nVehEntered="3"/>
    <interval begin="0.00" end="30.00" id="od1_0" nVehContrib="1" flow="120.00" occupancy="1.49" speed="11.18" harmonicMeanSpeed="11.18" length="5.00" nVehEntered="1"/>
    <interval begin="0.00" end="30.00" id="od1_1" nVehContrib="1" flow="120.00" occupancy="2.09" speed="11.18" harmonicMeanSpeed="11.18" length="7.00" nVehEntered="1"/>
    <interval begin="0.00" end="30.00" id="od1_2" nVehContrib="0" flow="0.00" occupancy="0.00" speed="-1.00" harmonicMeanSpeed="-1.00" length="-1.00" nVehEntered="0"/>
    <interval begin="0.00" end="30.00" id="od2_0" nVehContrib="1" flow="120.00" occupancy="1.49" speed="11.18" harmonicMeanSpeed="11.18" length="5.00" nVehEntered="1"/>
    <interval begin="0.00" end="30.00" id="od2_1" nVehContrib="1" flow="120.00" occupancy="2.39" speed="11.18" harmonicMeanSpeed="11.18" length="8.00" nVehEntered="1"/>
    <interval begin="0.00" end="30.00" id="od2_2" nVehContrib="1" flow="120.00" occupancy="2.68" speed="11.18" harmonicMeanSpeed="11.18" length="9.00" nVehEntered="1"/>
    <interval begin="0.00" end="30.00" id="od3_0" nVehContrib="1" flow="120.00" occupancy="1.79" speed="11.18" harmonicMeanSpeed="11.18" length="6.00" nVehEntered="1"/>
    <interval begin="0.00" end="30.00" id="od3_1" nVehContrib="0" flow="0.00" occupancy="0.00" speed="-1.00" harmonicMeanSpeed="-1.00" length="-1.00" nVehEntered="0"/>
    <interval begin="0.00" end="30.00" id="od3_2" nVehContrib="2" flow="240.00" occupancy="4.46" speed="11.18" harmonicMeanSpeed="11.18" length="6.50" nVehEntered="3"/>
    <interval begin="0.00" end="30.00" id="od4_0" nVehContrib="1" flow="120.00" occupancy="1.79" speed="11.18" harmonicMeanSpeed="11.18" length="6.00" nVehEntered="1"/>
    <interval begin="0.00" end="30.00" id="od4_1" nVehContrib="0" flow="0.00" occupancy="0.00" speed="-1.00" harmonicMeanSpeed="-1.00" length="-1.00" nVehEntered="0"/>
    <interval begin="0.00" end="30.00" id="od4_2" nVehContrib="4" flow="480.00" occupancy="9.23" speed="11.18" harmonicMeanSpeed="11.18" length="7.00" nVehEntered="5"/>
    <interval begin="0.00" end="30.00" id="ood1_0" nVehContrib="2" flow="240.00" occupancy="2.98" speed="11.18" harmonicMeanSpeed="11.18" length="5.00" nVehEntered="2"/>
    <interval begin="0.00" end="30.00" id="ood1_1" nVehContrib="1" flow="120.00" occupancy="2.09" speed="11.18" harmonicMeanSpeed="11.18" length="7.00" nVehEntered="1"/>
    <interval begin="0.00" end="30.00" id="ood1_2" nVehContrib="0" flow="0.00" occupancy="0.00" speed="-1.00" harmonicMeanSpeed="-1.00" length="-1.00" nVehEntered="0"/>
    <interval begin="0.00" end="30.00" id="ood2_0" nVehContrib="2" flow="240.00" occupancy="2.98" speed="11.18" harmonicMeanSpeed="11.18" length="5.00" nVehEntered="2"/>
    <interval begin="0.00" end="30.00" id="ood2_1" nVehContrib="1" flow="120.00" occupancy="2.39" speed="11.18" harmonicMeanSpeed="11.18" length="8.00" nVehEntered="1"/>
    <interval begin="0.00" end="30.00" id="ood2_2" nVehContrib="1" flow="120.00" occupancy="4.06" speed="11.18" harmonicMeanSpeed="11.18" length="9.00" nVehEntered="2"/>
    <interval begin="0.00" end="30.00" id="ood3_0" nVehContrib="1" flow="120.00" occupancy="1.79" speed="11.18" harmonicMeanSpeed="11.18" length="6.00" nVehEntered="1"/>
    <interval begin="0.00" end="30.00" id="ood3_1" nVehContrib="1" flow="120.00" occupancy="2.09" speed="11.18" harmonicMeanSpeed="11.18" length="7.00" nVehEntered="1"/>
    <interval begin="0.00" end="30.00" id="ood3_2" nVehContrib="3" flow="360.00" occupancy="5.37" speed="11.18" harmonicMeanSpeed="11.18" length="6.00" nVehEntered="3"/>
    <interval begin="0.00" end="30.00" id="ood4_0" nVehContrib="2" flow="240.00" occupancy="3.58" speed="11.18" harmonicMeanSpeed="11.18" length="6.00" nVehEntered="2"/>
    <interval begin="0.00" end="30.00" id="ood4_1" nVehContrib="0" flow="0.00" occupancy="1.04" speed="-1.00" harmonicMeanSpeed="-1.00" length="-1.00" nVehEntered="1"/>
    <interval begin="0.00" end="30.00" id="ood4_2" nVehContrib="5" flow="600.00" occupancy="10.14" speed="11.18" harmonicMeanSpeed="11.18" length="6.80" nVehEntered="5"/>
    <interval begin="0.00" end="30.00" id="oood1_0" nVehContrib="3" flow="360.00" occupancy="5.66" speed="11.18" harmonicMeanSpeed="11.18" length="6.33" nVehEntered="3"/>
    <interval begin="0.00" end="30.00" id="oood1_1" nVehContrib="1" flow="120.00" occupancy="2.09" speed="11.18" harmonicMeanSpeed="11.18" length="7.00" nVehEntered="1"/>
    <interval begin="0.00" end="30.00" id="oood1_2" nVehContrib="0" flow="0.00" occupancy="0.00" speed="-1.00" harmonicMeanSpeed="-1.00" length="-1.00" nVehEntered="0"/>
    <interval begin="0.00" end="30.00" id="oood2_0" nVehContrib="2" flow="240.00" occupancy="2.98" speed="11.18" harmonicMeanSpeed="11.18" length="5.00" nVehEntered="2"/>
    <interval begin="0.00" end="30.00" id="oood2_1" nVehContrib="1" flow="120.00" occupancy="2.39" speed="11.18" harmonicMeanSpeed="11.18" length="8.00" nVehEntered="1"/>
    <interval begin="0.00" end="30.00" id="oood2_2" nVehContrib="2" flow="240.00" occupancy="4.17" speed="11.18" harmonicMeanSpeed="11.18" length="7.00" nVehEntered="2"/>
    <interval begin="0.00" end="30.00" id="oood3_0" nVehContrib="1" flow="120.00" occupancy="1.79" speed="11.18" harmonicMeanSpeed="11.18" length="6.00" nVehEntered="1"/>
    <interval begin="0.00" end="30.00" id="oood3_1" nVehContrib="1" flow="120.00" occupancy="2.09" speed="11.18" harmonicMeanSpeed="11.18" length="7.00" nVehEntered="1"/>
    <interval begin="0.00" end="30.00" id="oood3_2" nVehContrib="3" flow="360.00" occupancy="5.37" speed="11.18" harmonicMeanSpeed="11.18" length="6.00" nVehEntered="3"/>
    <interval begin="0.00" end="30.00" id="oood4_0" nVehContrib="2" flow="240.00" occupancy="3.58" speed="11.18" harmonicMeanSpeed="11.18" length="6.00" nVehEntered="2"/>
    <interval begin="0.00" end="30.00" id="oood4_1" nVehContrib="1" flow="120.00" occupancy="1.49" speed="11.18" harmonicMeanSpeed="11.18" length="5.00" nVehEntered="1"/>
    <interval begin="0.00" end="30.00" id="oood4_2" nVehContrib="6" flow="720.00" occupancy="12.52" speed="11.18" harmonicMeanSpeed="11.18" length="7.00" nVehEntered="6"/>
    <interval begin="0.00" end="30.00" id="ooood1_0" nVehContrib="2" flow="240.00" occupancy="1.20" speed="33.24" harmonicMeanSpeed="32.32" length="6.00" nVehEntered="2"/>
    <interval begin="0.00" end="30.00" id="ooood1_1" nVehContrib="2" flow="240.00" occupancy="1.20" speed="41.55" harmonicMeanSpeed="39.89" length="7.50" nVehEntered="2"/>
    <interval begin="0.00" end="30.00" id="ooood1_2" nVehContrib="2" flow="240.00" occupancy="1.20" speed="33.24" harmonicMeanSpeed="32.32" length="6.00" nVehEntered="2"/>
    <interval begin="0.00" end="30.00" id="ooood2_0" nVehContrib="2" flow="240.00" occupancy="1.20" speed="27.70" harmonicMeanSpeed="27.70" length="5.00" nVehEntered="2"/>
    <interval begin="0.00" end="30.00" id="ooood2_1" nVehContrib="2" flow="240.00" occupancy="1.20" speed="36.01" harmonicMeanSpeed="34.09" length="6.50" nVehEntered="2"/>
    <interval begin="0.00" end="30.00" id="ooood2_2" nVehContrib="2" flow="240.00" occupancy="1.20" speed="38.78" harmonicMeanSpeed="35.62" length="7.00" nVehEntered="2"/>
    <interval begin="0.00" end="30.00" id="ooood3_0" nVehContrib="3" flow="360.00" occupancy="1.81" speed="42.47" harmonicMeanSpeed="41.88" length="7.67" nVehEntered="3"/>
    <interval begin="0.00" end="30.00" id="ooood3_1" nVehContrib="2" flow="240.00" occupancy="1.20" speed="36.01" harmonicMeanSpeed="35.80" length="6.50" nVehEntered="2"/>
    <interval begin="0.00" end="30.00" id="ooood3_2" nVehContrib="3" flow="360.00" occupancy="1.81" speed="31.39" harmonicMeanSpeed="31.16" length="5.67" nVehEntered="3"/>
    <interval begin="0.00" end="30.00" id="ooood4_0" nVehContrib="5" flow="600.00" occupancy="3.01" speed="31.02" harmonicMeanSpeed="30.78" length="5.60" nVehEntered="5"/>
    <interval begin="0.00" end="30.00" id="ooood4_1" nVehContrib="5" flow="600.00" occupancy="3.01" speed="36.56" harmonicMeanSpeed="35.36" length="6.60" nVehEntered="5"/>
    <interval begin="0.00" end="30.00" id="ooood4_2" nVehContrib="1" flow="120.00" occupancy="0.60" speed="49.86" harmonicMeanSpeed="49.86" length="9.00" nVehEntered="1"/>
    <interval begin="30.00" end="60.00" id="d1_0" nVehContrib="4" flow="480.00" occupancy="7.75" speed="11.18" harmonicMeanSpeed="11.18" length="6.50" nVehEntered="4"/>
    <interval begin="30.00" end="60.00" id="d1_1" nVehContrib="1" flow="120.00" occupancy="1.49" speed="11.18" harmonicMeanSpeed="11.18" length="5.00" nVehEntered="1"/>
    <interval begin="30.00" end="60.00" id="d1_2" nVehContrib="4" flow="480.00" occupancy="8.05" speed="11.18" harmonicMeanSpeed="11.18" length="6.75" nVehEntered="4"/>
    <interval begin="30.00" end="60.00" id="d2_0" nVehContrib="4" flow="480.00" occupancy="7.79" speed="11.14" harmonicMeanSpeed="11.14" length="6.50" nVehEntered="4"/>
    <interval begin="30.00" end="60.00" id="d2_1" nVehContrib="1" flow="120.00" occupancy="2.39" speed="11.18" harmonicMeanSpeed="11.18" length="8.00" nVehEntered="1"/>
    <interval begin="30.00" end="60.00" id="d2_2" nVehContrib="3" flow="360.00" occupancy="4.77" speed="11.18" harmonicMeanSpeed="11.18" length="5.33" nVehEntered="3"/>
    <interval begin="30.00" end="60.00" id="d3_0" nVehContrib="0" flow="0.00" occupancy="0.00" speed="-1.00" harmonicMeanSpeed="-1.00" length="-1.00" nVehEntered="0"/>
    <interval begin="30.00" end="60.00" id="d3_1" nVehContrib="4" flow="480.00" occupancy="8.35" speed="11.18" harmonicMeanSpeed="11.18" length="7.00" nVehEntered="4"/>
    <interval begin="30.00" end="60.00" id="d3_2" nVehContrib="6" flow="720.00" occupancy="36.77" speed="10.72" harmonicMeanSpeed="10.68" length="7.33" nVehEntered="7"/>
    <interval begin="30.00" end="60.00" id="d4_0" nVehContrib="7" flow="840.00" occupancy="14.50" speed="10.91" harmonicMeanSpeed="10.86" length="6.71" nVehEntered="7"/>
    <interval begin="30.00" end="60.00" id="d4_1" nVehContrib="4" flow="480.00" occupancy="6.86" speed="11.18" harmonicMeanSpeed="11.18" length="5.75" nVehEntered="4"/>
    <interval begin="30.00" end="60.00" id="d4_2" nVehContrib="6" flow="720.00" occupancy="54.32" speed="6.42" harmonicMeanSpeed="2.04" length="6.00" nVehEntered="6"/>
    <interval begin="30.00" end="60.00" id="od1_0" nVehContrib="4" flow="480.00" occupancy="8.94" speed="11.18" harmonicMeanSpeed="11.18" length="7.50" nVehEntered="4"/>
    <interval begin="30.00" end="60.00" id="od1_1" nVehContrib="1" flow="120.00" occupancy="1.49" speed="11.18" harmonicMeanSpeed="11.18" length="5.00" nVehEntered="1"/>
    <interval begin="30.00" end="60.00" id="od1_2" nVehContrib="5" flow="600.00" occupancy="10.44" speed="11.18" harmonicMeanSpeed="11.18" length="7.00" nVehEntered="5"/>
    <interval begin="30.00" end="60.00" id="od2_0" nVehContrib="4" flow="480.00" occupancy="8.35" speed="11.18" harmonicMeanSpeed="11.18" length="7.00" nVehEntered="4"/>
    <interval begin="30.00" end="60.00" id="od2_1" nVehContrib="1" flow="120.00" occupancy="2.39" speed="11.18" harmonicMeanSpeed="11.18" length="8.00" nVehEntered="1"/>
    <interval begin="30.00" end="60.00" id="od2_2" nVehContrib="3" flow="360.00" occupancy="4.77" speed="11.18" harmonicMeanSpeed="11.18" length="5.33" nVehEntered="3"/>
    <interval begin="30.00" end="60.00" id="od3_0" nVehContrib="0" flow="0.00" occupancy="0.00" speed="-1.00" harmonicMeanSpeed="-1.00" length="-1.00" nVehEntered="0"/>
    <interval begin="30.00" end="60.00" id="od3_1" nVehContrib="4" flow="480.00" occupancy="8.35" speed="11.18" harmonicMeanSpeed="11.18" length="7.00" nVehEntered="4"/>
    <interval begin="30.00" end="60.00" id="od3_2" nVehContrib="7" flow="840.00" occupancy="14.36" speed="11.15" harmonicMeanSpeed="11.15" length="7.14" nVehEntered="6"/>
    <interval begin="30.00" end="60.00" id="od4_0" nVehContrib="6" flow="720.00" occupancy="12.22" speed="11.18" harmonicMeanSpeed="11.18" length="6.83" nVehEntered="6"/>
    <interval begin="30.00" end="60.00" id="od4_1" nVehContrib="4" flow="480.00" occupancy="8.34" speed="11.18" harmonicMeanSpeed="11.18" length="5.75" nVehEntered="5"/>
    <interval begin="30.00" end="60.00" id="od4_2" nVehContrib="7" flow="840.00" occupancy="11.95" speed="10.65" harmonicMeanSpeed="10.57" length="5.86" nVehEntered="6"/>
    <interval begin="30.00" end="60.00" id="ood1_0" nVehContrib="4" flow="480.00" occupancy="9.84" speed="11.18" harmonicMeanSpeed="11.18" length="8.25" nVehEntered="4"/>
    <interval begin="30.00" end="60.00" id="ood1_1" nVehContrib="1" flow="120.00" occupancy="1.49" speed="11.18" harmonicMeanSpeed="11.18" length="5.00" nVehEntered="1"/>
    <interval begin="30.00" end="60.00" id="ood1_2" nVehContrib="5" flow="600.00" occupancy="10.44" speed="11.18" harmonicMeanSpeed="11.18" length="7.00" nVehEntered="5"/>
    <interval begin="30.00" end="60.00" id="ood2_0" nVehContrib="4" flow="480.00" occupancy="8.65" speed="11.18" harmonicMeanSpeed="11.18" length="7.25" nVehEntered="4"/>
    <interval begin="30.00" end="60.00" id="ood2_1" nVehContrib="2" flow="240.00" occupancy="5.07" speed="11.18" harmonicMeanSpeed="11.18" length="8.50" nVehEntered="2"/>
    <interval begin="30.00" end="60.00" id="ood2_2" nVehContrib="3" flow="360.00" occupancy="3.40" speed="11.18" harmonicMeanSpeed="11.18" length="5.33" nVehEntered="2"/>
    <interval begin="30.00" end="60.00" id="ood3_0" nVehContrib="0" flow="0.00" occupancy="0.00" speed="-1.00" harmonicMeanSpeed="-1.00" length="-1.00" nVehEntered="0"/>
    <interval begin="30.00" end="60.00" id="ood3_1" nVehContrib="3" flow="360.00" occupancy="6.26" speed="11.18" harmonicMeanSpeed="11.18" length="7.00" nVehEntered="3"/>
    <interval begin="30.00" end="60.00" id="ood3_2" nVehContrib="6" flow="720.00" occupancy="13.42" speed="11.18" harmonicMeanSpeed="11.18" length="7.50" nVehEntered="6"/>
    <interval begin="30.00" end="60.00" id="ood4_0" nVehContrib="5" flow="600.00" occupancy="10.44" speed="11.18" harmonicMeanSpeed="11.18" length="7.00" nVehEntered="5"/>
    <interval begin="30.00" end="60.00" id="ood4_1" nVehContrib="5" flow="600.00" occupancy="8.20" speed="11.18" harmonicMeanSpeed="11.18" length="6.20" nVehEntered="4"/>
    <interval begin="30.00" end="60.00" id="ood4_2" nVehContrib="6" flow="720.00" occupancy="10.47" speed="11.14" harmonicMeanSpeed="11.14" length="5.83" nVehEntered="6"/>
    <interval begin="30.00" end="60.00" id="oood1_0" nVehContrib="3" flow="360.00" occupancy="7.17" speed="11.16" harmonicMeanSpeed="11.16" length="8.00" nVehEntered="3"/>
    <interval begin="30.00" end="60.00" id="oood1_1" nVehContrib="1" flow="120.00" occupancy="1.49" speed="11.18" harmonicMeanSpeed="11.18" length="5.00" nVehEntered="1"/>
    <interval begin="30.00" end="60.00" id="oood1_2" nVehContrib="5" flow="600.00" occupancy="10.44" speed="11.18" harmonicMeanSpeed="11.18" length="7.00" nVehEntered="5"/>
    <interval begin="30.00" end="60.00" id="oood2_0" nVehContrib="4" flow="480.00" occupancy="8.69" speed="11.11" harmonicMeanSpeed="11.11" length="7.25" nVehEntered="4"/>
    <interval begin="30.00" end="60.00" id="oood2_1" nVehContrib="2" flow="240.00" occupancy="5.07" speed="11.18" harmonicMeanSpeed="11.18" length="8.50" nVehEntered="2"/>
    <interval begin="30.00" end="60.00" id="oood2_2" nVehContrib="3" flow="360.00" occupancy="5.66" speed="11.18" harmonicMeanSpeed="11.18" length="6.33" nVehEntered="3"/>
    <interval begin="30.00" end="60.00" id="oood3_0" nVehContrib="0" flow="0.00" occupancy="0.00" speed="-1.00" harmonicMeanSpeed="-1.00" length="-1.00" nVehEntered="0"/>
    <interval begin="30.00" end="60.00" id="oood3_1" nVehContrib="3" flow="360.00" occupancy="6.26" speed="11.18" harmonicMeanSpeed="11.18" length="7.00" nVehEntered="3"/>
    <interval begin="30.00" end="60.00" id="oood3_2" nVehContrib="7" flow="840.00" occupancy="15.80" speed="11.18" harmonicMeanSpeed="11.18" length="7.57" nVehEntered="7"/>
    <interval begin="30.00" end="60.00" id="oood4_0" nVehContrib="5" flow="600.00" occupancy="10.44" speed="11.17" harmonicMeanSpeed="11.17" length="7.00" nVehEntered="5"/>
    <interval begin="30.00" end="60.00" id="oood4_1" nVehContrib="4" flow="480.00" occupancy="7.75" speed="11.18" harmonicMeanSpeed="11.18" length="6.50" nVehEntered="4"/>
    <interval begin="30.00" end="60.00" id="oood4_2" nVehContrib="5" flow="600.00" occupancy="8.05" speed="11.18" harmonicMeanSpeed="11.18" length="5.40" nVehEntered="5"/>
    <interval begin="30.00" end="60.00" id="ooood1_0" nVehContrib="2" flow="240.00" occupancy="1.20" speed="36.01" harmonicMeanSpeed="34.09" length="6.50" nVehEntered="2"/>
    <interval begin="30.00" end="60.00" id="ooood1_1" nVehContrib="3" flow="360.00" occupancy="1.81" speed="42.47" harmonicMeanSpeed="41.26" length="7.67" nVehEntered="3"/>
    <interval begin="30.00" end="60.00" id="ooood1_2" nVehContrib="4" flow="480.00" occupancy="2.41" speed="44.32" harmonicMeanSpeed="43.97" length="8.00" nVehEntered="4"/>
    <interval begin="30.00" end="60.00" id="ooood2_0" nVehContrib="1" flow="120.00" occupancy="0.60" speed="49.86" harmonicMeanSpeed="49.86" length="9.00" nVehEntered="1"/>
    <interval begin="30.00" end="60.00" id="ooood2_1" nVehContrib="4" flow="480.00" occupancy="2.41" speed="42.94" harmonicMeanSpeed="41.99" length="7.75" nVehEntered="4"/>
    <interval begin="30.00" end="60.00" id="ooood2_2" nVehContrib="5" flow="600.00" occupancy="3.01" speed="38.78" harmonicMeanSpeed="38.15" length="7.00" nVehEntered="5"/>
    <interval begin="30.00" end="60.00" id="ooood3_0" nVehContrib="0" flow="0.00" occupancy="0.00" speed="-1.00" harmonicMeanSpeed="-1.00" length="-1.00" nVehEntered="0"/>
    <interval begin="30.00" end="60.00" id="ooood3_1" nVehContrib="3" flow="360.00" occupancy="1.81" speed="40.63" harmonicMeanSpeed="39.51" length="7.33" nVehEntered="3"/>
    <interval begin="30.00" end="60.00" id="ooood3_2" nVehContrib="5" flow="600.00" occupancy="3.01" speed="43.21" harmonicMeanSpeed="41.21" length="7.80" nVehEntered="5"/>
    <interval begin="30.00" end="60.00" id="ooood4_0" nVehContrib="5" flow="600.00" occupancy="3.01" speed="35.46" harmonicMeanSpeed="33.13" length="6.40" nVehEntered="5"/>
    <interval begin="30.00" end="60.00" id="ooood4_1" nVehContrib="6" flow="720.00" occupancy="3.61" speed="34.16" harmonicMeanSpeed="32.70" length="6.17" nVehEntered="6"/>
    <interval begin="30.00" end="60.00" id="ooood4_2" nVehContrib="4" flow="480.00" occupancy="2.41" speed="36.01" harmonicMeanSpeed="35.46" length="6.50" nVehEntered="4"/>
    <interval begin="60.00" end="90.00" id="d1_0" nVehContrib="2" flow="240.00" occupancy="5.32" speed="10.65" harmonicMeanSpeed="10.62" length="8.50" nVehEntered="2"/>
    <interval begin="60.00" end="90.00" id="d1_1" nVehContrib="0" flow="0.00" occupancy="0.00" speed="-1.00" harmonicMeanSpeed="-1.00" length="-1.00" nVehEntered="0"/>
    <interval begin="60.00" end="90.00" id="d1_2" nVehContrib="7" flow="840.00" occupancy="16.22" speed="10.86" harmonicMeanSpeed="10.84" length="7.57" nVehEntered="7"/>
    <interval begin="60.00" end="90.00" id="d2_0" nVehContrib="3" flow="360.00" occupancy="5.66" speed="11.18" harmonicMeanSpeed="11.18" length="6.33" nVehEntered="3"/>
    <interval begin="60.00" end="90.00" id="d2_1" nVehContrib="1" flow="120.00" occupancy="2.68" speed="11.18" harmonicMeanSpeed="11.18" length="9.00" nVehEntered="1"/>
    <interval begin="60.00" end="90.00" id="d2_2" nVehContrib="6" flow="720.00" occupancy="17.21" speed="10.90" harmonicMeanSpeed="10.86" length="7.17" nVehEntered="7"/>
    <interval begin="60.00" end="90.00" id="d3_0" nVehContrib="2" flow="240.00" occupancy="4.17" speed="11.18" harmonicMeanSpeed="11.18" length="7.00" nVehEntered="2"/>
    <interval begin="60.00" end="90.00" id="d3_1" nVehContrib="3" flow="360.00" occupancy="7.75" speed="11.18" harmonicMeanSpeed="11.18" length="8.67" nVehEntered="3"/>
    <interval begin="60.00" end="90.00" id="d3_2" nVehContrib="2" flow="240.00" occupancy="65.56" speed="0.60" harmonicMeanSpeed="0.50" length="7.00" nVehEntered="1"/>
    <interval begin="60.00" end="90.00" id="d4_0" nVehContrib="2" flow="240.00" occupancy="4.47" speed="11.18" harmonicMeanSpeed="11.18" length="7.50" nVehEntered="2"/>
    <interval begin="60.00" end="90.00" id="d4_1" nVehContrib="5" flow="600.00" occupancy="10.48" speed="11.13" harmonicMeanSpeed="11.13" length="7.00" nVehEntered="5"/>
    <interval begin="60.00" end="90.00" id="d4_2" nVehContrib="4" flow="480.00" occupancy="8.39" speed="9.13" harmonicMeanSpeed="8.98" length="5.75" nVehEntered="4"/>
    <interval begin="60.00" end="90.00" id="od1_0" nVehContrib="1" flow="120.00" occupancy="2.97" speed="11.18" harmonicMeanSpeed="11.18" length="8.00" nVehEntered="2"/>
    <interval begin="60.00" end="90.00" id="od1_1" nVehContrib="0" flow="0.00" occupancy="0.00" speed="-1.00" harmonicMeanSpeed="-1.00" length="-1.00" nVehEntered="0"/>
    <interval begin="60.00" end="90.00" id="od1_2" nVehContrib="6" flow="720.00" occupancy="13.78" speed="10.86" harmonicMeanSpeed="10.81" length="7.50" nVehEntered="6"/>
    <interval begin="60.00" end="90.00" id="od2_0" nVehContrib="2" flow="240.00" occupancy="3.58" speed="11.18" harmonicMeanSpeed="11.18" length="6.00" nVehEntered="2"/>
    <interval begin="60.00" end="90.00" id="od2_1" nVehContrib="1" flow="120.00" occupancy="2.68" speed="11.18" harmonicMeanSpeed="11.18" length="9.00" nVehEntered="1"/>
    <interval begin="60.00" end="90.00" id="od2_2" nVehContrib="7" flow="840.00" occupancy="15.52" speed="10.99" harmonicMeanSpeed="10.97" length="7.29" nVehEntered="7"/>
    <interval begin="60.00" end="90.00" id="od3_0" nVehContrib="2" flow="240.00" occupancy="4.17" speed="11.18" harmonicMeanSpeed="11.18" length="7.00" nVehEntered="2"/>
    <interval begin="60.00" end="90.00" id="od3_1" nVehContrib="3" flow="360.00" occupancy="7.75" speed="11.18" harmonicMeanSpeed="11.18" length="8.67" nVehEntered="3"/>
    <interval begin="60.00" end="90.00" id="od3_2" nVehContrib="2" flow="240.00" occupancy="4.83" speed="11.04" harmonicMeanSpeed="11.04" length="8.00" nVehEntered="2"/>
    <interval begin="60.00" end="90.00" id="od4_0" nVehContrib="2" flow="240.00" occupancy="4.47" speed="11.18" harmonicMeanSpeed="11.18" length="7.50" nVehEntered="2"/>
    <interval begin="60.00" end="90.00" id="od4_1" nVehContrib="5" flow="600.00" occupancy="8.96" speed="11.18" harmonicMeanSpeed="11.18" length="7.00" nVehEntered="4"/>
    <interval begin="60.00" end="90.00" id="od4_2" nVehContrib="2" flow="240.00" occupancy="6.47" speed="9.04" harmonicMeanSpeed="8.53" length="6.50" nVehEntered="3"/>
    <interval begin="60.00" end="90.00" id="ood1_0" nVehContrib="1" flow="120.00" occupancy="1.49" speed="11.18" harmonicMeanSpeed="11.18" length="5.00" nVehEntered="1"/>
    <interval begin="60.00" end="90.00" id="ood1_1" nVehContrib="0" flow="0.00" occupancy="1.97" speed="-1.00" harmonicMeanSpeed="-1.00" length="-1.00" nVehEntered="1"/>
    <interval begin="60.00" end="90.00" id="ood1_2" nVehContrib="6" flow="720.00" occupancy="13.42" speed="11.18" harmonicMeanSpeed="11.18" length="7.50" nVehEntered="6"/>
    <interval begin="60.00" end="90.00" id="ood2_0" nVehContrib="1" flow="120.00" occupancy="1.79" speed="11.18" harmonicMeanSpeed="11.18" length="6.00" nVehEntered="1"/>
    <interval begin="60.00" end="90.00" id="ood2_1" nVehContrib="0" flow="0.00" occupancy="0.00" speed="-1.00" harmonicMeanSpeed="-1.00" length="-1.00" nVehEntered="0"/>
    <interval begin="60.00" end="90.00" id="ood2_2" nVehContrib="7" flow="840.00" occupancy="17.47" speed="11.18" harmonicMeanSpeed="11.18" length="7.29" nVehEntered="8"/>
    <interval begin="60.00" end="90.00" id="ood3_0" nVehContrib="2" flow="240.00" occupancy="5.84" speed="11.18" harmonicMeanSpeed="11.18" length="7.00" nVehEntered="3"/>
    <interval begin="60.00" end="90.00" id="ood3_1" nVehContrib="3" flow="360.00" occupancy="7.75" speed="11.18" harmonicMeanSpeed="11.18" length="8.67" nVehEntered="3"/>
    <interval begin="60.00" end="90.00" id="ood3_2" nVehContrib="3" flow="360.00" occupancy="6.56" speed="11.18" harmonicMeanSpeed="11.18" length="7.33" nVehEntered="3"/>
    <interval begin="60.00" end="90.00" id="ood4_0" nVehContrib="2" flow="240.00" occupancy="4.47" speed="11.18" harmonicMeanSpeed="11.18" length="7.50" nVehEntered="2"/>
    <interval begin="60.00" end="90.00" id="ood4_1" nVehContrib="4" flow="480.00" occupancy="8.05" speed="11.18" harmonicMeanSpeed="11.18" length="6.75" nVehEntered="4"/>
    <interval begin="60.00" end="90.00" id="ood4_2" nVehContrib="3" flow="360.00" occupancy="6.26" speed="11.18" harmonicMeanSpeed="11.18" length="7.00" nVehEntered="3"/>
    <interval begin="60.00" end="90.00" id="oood1_0" nVehContrib="1" flow="120.00" occupancy="1.49" speed="11.18" harmonicMeanSpeed="11.18" length="5.00" nVehEntered="1"/>
    <interval begin="60.00" end="90.00" id="oood1_1" nVehContrib="1" flow="120.00" occupancy="2.09" speed="11.18" harmonicMeanSpeed="11.18" length="7.00" nVehEntered="1"/>
    <interval begin="60.00" end="90.00" id="oood1_2" nVehContrib="6" flow="720.00" occupancy="13.42" speed="11.18" harmonicMeanSpeed="11.18" length="7.50" nVehEntered="6"/>
    <interval begin="60.00" end="90.00" id="oood2_0" nVehContrib="1" flow="120.00" occupancy="1.79" speed="11.18" harmonicMeanSpeed="11.18" length="6.00" nVehEntered="1"/>
    <interval begin="60.00" end="90.00" id="oood2_1" nVehContrib="0" flow="0.00" occupancy="0.00" speed="-1.00" harmonicMeanSpeed="-1.00" length="-1.00" nVehEntered="0"/>
    <interval begin="60.00" end="90.00" id="oood2_2" nVehContrib="8" flow="960.00" occupancy="16.70" speed="11.18" harmonicMeanSpeed="11.18" length="7.00" nVehEntered="8"/>
    <interval begin="60.00" end="90.00" id="oood3_0" nVehContrib="3" flow="360.00" occupancy="5.96" speed="11.18" harmonicMeanSpeed="11.18" length="6.67" nVehEntered="3"/>
    <interval begin="60.00" end="90.00" id="oood3_1" nVehContrib="3" flow="360.00" occupancy="7.75" speed="11.18" harmonicMeanSpeed="11.18" length="8.67" nVehEntered="3"/>
    <interval begin="60.00" end="90.00" id="oood3_2" nVehContrib="2" flow="240.00" occupancy="4.17" speed="11.18" harmonicMeanSpeed="11.18" length="7.00" nVehEntered="2"/>
    <interval begin="60.00" end="90.00" id="oood4_0" nVehContrib="2" flow="240.00" occupancy="4.47" speed="11.18" harmonicMeanSpeed="11.18" length="7.50" nVehEntered="2"/>
    <interval begin="60.00" end="90.00" id="oood4_1" nVehContrib="4" flow="480.00" occupancy="8.05" speed="11.18" harmonicMeanSpeed="11.18" length="6.75" nVehEntered="4"/>
    <interval begin="60.00" end="90.00" id="oood4_2" nVehContrib="3" flow="360.00" occupancy="6.26" speed="11.18" harmonicMeanSpeed="11.18" length="7.00" nVehEntered="3"/>