<?xml version="1.0" encoding="UTF-8"?>

<!-- generated on 02/26/20 23:10:01 by Eclipse SUMO GUI Version 1.3.1
<configuration xmlns:xsi="http://www.w3.org/2001/XMLSchema-instance" xsi:noNamespaceSchemaLocation="http://sumo.dlr.de/xsd/sumoConfiguration.xsd">

    <input>
        <net-file value="data/lane3_tl1.net.xml"/>
        <route-files value="data/icacc+.rou.xml"/>
        <additional-files value="data/icacc+.det.xml"/>
    </input>

    <output>
        <tripinfo-output value="tripinfo.xml"/>
    </output>

    <time>
        <begin value="0"/>
        <step-length value="0.1"/>
    </time>

    <processing>
        <collision.mingap-factor value="0"/>
    </processing>

    <report>
        <verbose value="true"/>
        <no-step-log value="true"/>
    </report>

    <traci_server>
        <remote-port value="12635"/>
    </traci_server>

    <gui_only>
        <quit-on-end value="true"/>
        <start value="true"/>
        <tracker-interval value="0.1"/>
    </gui_only>

</configuration>
-->

<detector xmlns:xsi="http://www.w3.org/2001/XMLSchema-instance" xsi:noNamespaceSchemaLocation="http://sumo.dlr.de/xsd/det_e1_file.xsd">
    <interval begin="0.00" end="30.00" id="d1_0" nVehContrib="4" flow="480.00" occupancy="7.17" speed="11.17" harmonicMeanSpeed="11.17" length="6.00" nVehEntered="4"/>
    <interval begin="0.00" end="30.00" id="d1_1" nVehContrib="1" flow="120.00" occupancy="1.79" speed="11.18" harmonicMeanSpeed="11.18" length="6.00" nVehEntered="1"/>
    <interval begin="0.00" end="30.00" id="d1_2" nVehContrib="2" flow="240.00" occupancy="4.77" speed="11.17" harmonicMeanSpeed="11.17" length="8.00" nVehEntered="2"/>
    <interval begin="0.00" end="30.00" id="d2_0" nVehContrib="2" flow="240.00" occupancy="5.07" speed="11.18" harmonicMeanSpeed="11.18" length="8.50" nVehEntered="2"/>
    <interval begin="0.00" end="30.00" id="d2_1" nVehContrib="0" flow="0.00" occupancy="0.00" speed="-1.00" harmonicMeanSpeed="-1.00" length="-1.00" nVehEntered="0"/>
    <interval begin="0.00" end="30.00" id="d2_2" nVehContrib="0" flow="0.00" occupancy="0.00" speed="-1.00" harmonicMeanSpeed="-1.00" length="-1.00" nVehEntered="0"/>
    <interval begin="0.00" end="30.00" id="d3_0" nVehContrib="2" flow="240.00" occupancy="4.17" speed="11.18" harmonicMeanSpeed="11.18" length="7.00" nVehEntered="2"/>
    <interval begin="0.00" end="30.00" id="d3_1" nVehContrib="0" flow="0.00" occupancy="0.00" speed="-1.00" harmonicMeanSpeed="-1.00" length="-1.00" nVehEntered="0"/>
    <interval begin="0.00" end="30.00" id="d3_2" nVehContrib="1" flow="120.00" occupancy="1.79" speed="11.18" harmonicMeanSpeed="11.18" length="6.00" nVehEntered="1"/>
    <interval begin="0.00" end="30.00" id="d4_0" nVehContrib="5" flow="600.00" occupancy="11.45" speed="11.18" harmonicMeanSpeed="11.18" length="7.20" nVehEntered="6"/>
    <interval begin="0.00" end="30.00" id="d4_1" nVehContrib="0" flow="0.00" occupancy="0.00" speed="-1.00" harmonicMeanSpeed="-1.00" length="-1.00" nVehEntered="0"/>
    <interval begin="0.00" end="30.00" id="d4_2" nVehContrib="3" flow="360.00" occupancy="6.57" speed="11.17" harmonicMeanSpeed="11.17" length="7.33" nVehEntered="3"/>
    <interval begin="0.00" end="30.00" id="od1_0" nVehContrib="4" flow="480.00" occupancy="7.18" speed="11.14" harmonicMeanSpeed="11.14" length="6.00" nVehEntered="4"/>
    <interval begin="0.00" end="30.00" id="od1_1" nVehContrib="2" flow="240.00" occupancy="3.29" speed="11.16" harmonicMeanSpeed="11.16" length="5.50" nVehEntered="2"/>
    <interval begin="0.00" end="30.00" id="od1_2" nVehContrib="2" flow="240.00" occupancy="5.27" speed="11.15" harmonicMeanSpeed="11.15" length="8.00" nVehEntered="3"/>
    <interval begin="0.00" end="30.00" id="od2_0" nVehContrib="2" flow="240.00" occupancy="5.07" speed="11.18" harmonicMeanSpeed="11.18" length="8.50" nVehEntered="2"/>
    <interval begin="0.00" end="30.00" id="od2_1" nVehContrib="0" flow="0.00" occupancy="0.00" speed="-1.00" harmonicMeanSpeed="-1.00" length="-1.00" nVehEntered="0"/>
    <interval begin="0.00" end="30.00" id="od2_2" nVehContrib="0" flow="0.00" occupancy="0.00" speed="-1.00" harmonicMeanSpeed="-1.00" length="-1.00" nVehEntered="0"/>
    <interval begin="0.00" end="30.00" id="od3_0" nVehContrib="2" flow="240.00" occupancy="4.17" speed="11.18" harmonicMeanSpeed="11.18" length="7.00" nVehEntered="2"/>
    <interval begin="0.00" end="30.00" id="od3_1" nVehContrib="0" flow="0.00" occupancy="0.00" speed="-1.00" harmonicMeanSpeed="-1.00" length="-1.00" nVehEntered="0"/>
    <interval begin="0.00" end="30.00" id="od3_2" nVehContrib="1" flow="120.00" occupancy="1.79" speed="11.18" harmonicMeanSpeed="11.18" length="6.00" nVehEntered="1"/>
    <interval begin="0.00" end="30.00" id="od4_0" nVehContrib="6" flow="720.00" occupancy="13.92" speed="11.18" harmonicMeanSpeed="11.18" length="6.83" nVehEntered="7"/>
    <interval begin="0.00" end="30.00" id="od4_1" nVehContrib="0" flow="0.00" occupancy="0.00" speed="-1.00" harmonicMeanSpeed="-1.00" length="-1.00" nVehEntered="0"/>
    <interval begin="0.00" end="30.00" id="od4_2" nVehContrib="3" flow="360.00" occupancy="6.58" speed="11.15" harmonicMeanSpeed="11.15" length="7.33" nVehEntered="3"/>
    <interval begin="0.00" end="30.00" id="ood1_0" nVehContrib="5" flow="600.00" occupancy="9.63" speed="11.08" harmonicMeanSpeed="11.08" length="6.40" nVehEntered="5"/>
    <interval begin="0.00" end="30.00" id="ood1_1" nVehContrib="2" flow="240.00" occupancy="3.30" speed="11.12" harmonicMeanSpeed="11.12" length="5.50" nVehEntered="2"/>
    <interval begin="0.00" end="30.00" id="ood1_2" nVehContrib="3" flow="360.00" occupancy="7.51" speed="11.10" harmonicMeanSpeed="11.09" length="8.33" nVehEntered="3"/>
    <interval begin="0.00" end="30.00" id="ood2_0" nVehContrib="2" flow="240.00" occupancy="5.07" speed="11.18" harmonicMeanSpeed="11.18" length="8.50" nVehEntered="2"/>
    <interval begin="0.00" end="30.00" id="ood2_1" nVehContrib="0" flow="0.00" occupancy="0.00" speed="-1.00" harmonicMeanSpeed="-1.00" length="-1.00" nVehEntered="0"/>
    <interval begin="0.00" end="30.00" id="ood2_2" nVehContrib="0" flow="0.00" occupancy="0.00" speed="-1.00" harmonicMeanSpeed="-1.00" length="-1.00" nVehEntered="0"/>
    <interval begin="0.00" end="30.00" id="ood3_0" nVehContrib="2" flow="240.00" occupancy="4.17" speed="11.18" harmonicMeanSpeed="11.18" length="7.00" nVehEntered="2"/>
    <interval begin="0.00" end="30.00" id="ood3_1" nVehContrib="0" flow="0.00" occupancy="2.23" speed="-1.00" harmonicMeanSpeed="-1.00" length="-1.00" nVehEntered="1"/>
    <interval begin="0.00" end="30.00" id="ood3_2" nVehContrib="1" flow="120.00" occupancy="1.79" speed="11.18" harmonicMeanSpeed="11.18" length="6.00" nVehEntered="1"/>
    <interval begin="0.00" end="30.00" id="ood4_0" nVehContrib="7" flow="840.00" occupancy="14.61" speed="11.18" harmonicMeanSpeed="11.18" length="7.00" nVehEntered="7"/>
    <interval begin="0.00" end="30.00" id="ood4_1" nVehContrib="0" flow="0.00" occupancy="0.00" speed="-1.00" harmonicMeanSpeed="-1.00" length="-1.00" nVehEntered="0"/>
    <interval begin="0.00" end="30.00" id="ood4_2" nVehContrib="3" flow="360.00" occupancy="6.61" speed="11.10" harmonicMeanSpeed="11.10" length="7.33" nVehEntered="3"/>
    <interval begin="0.00" end="30.00" id="oood1_0" nVehContrib="5" flow="600.00" occupancy="12.07" speed="10.93" harmonicMeanSpeed="10.93" length="6.40" nVehEntered="6"/>
    <interval begin="0.00" end="30.00" id="oood1_1" nVehContrib="2" flow="240.00" occupancy="3.32" speed="11.03" harmonicMeanSpeed="11.03" length="5.50" nVehEntered="2"/>
    <interval begin="0.00" end="30.00" id="oood1_2" nVehContrib="3" flow="360.00" occupancy="7.60" speed="10.97" harmonicMeanSpeed="10.96" length="8.33" nVehEntered="3"/>
    <interval begin="0.00" end="30.00" id="oood2_0" nVehContrib="2" flow="240.00" occupancy="5.07" speed="11.18" harmonicMeanSpeed="11.18" length="8.50" nVehEntered="2"/>
    <interval begin="0.00" end="30.00" id="oood2_1" nVehContrib="0" flow="0.00" occupancy="0.00" speed="-1.00" harmonicMeanSpeed="-1.00" length="-1.00" nVehEntered="0"/>
    <interval begin="0.00" end="30.00" id="oood2_2" nVehContrib="0" flow="0.00" occupancy="0.00" speed="-1.00" harmonicMeanSpeed="-1.00" length="-1.00" nVehEntered="0"/>
    <interval begin="0.00" end="30.00" id="oood3_0" nVehContrib="2" flow="240.00" occupancy="4.17" speed="11.18" harmonicMeanSpeed="11.18" length="7.00" nVehEntered="2"/>
    <interval begin="0.00" end="30.00" id="oood3_1" nVehContrib="1" flow="120.00" occupancy="2.39" speed="11.18" harmonicMeanSpeed="11.18" length="8.00" nVehEntered="1"/>
    <interval begin="0.00" end="30.00" id="oood3_2" nVehContrib="1" flow="120.00" occupancy="1.79" speed="11.18" harmonicMeanSpeed="11.18" length="6.00" nVehEntered="1"/>
    <interval begin="0.00" end="30.00" id="oood4_0" nVehContrib="8" flow="960.00" occupancy="16.99" speed="11.18" harmonicMeanSpeed="11.18" length="7.13" nVehEntered="8"/>
    <interval begin="0.00" end="30.00" id="oood4_1" nVehContrib="0" flow="0.00" occupancy="0.00" speed="-1.00" harmonicMeanSpeed="-1.00" length="-1.00" nVehEntered="0"/>
    <interval begin="0.00" end="30.00" id="oood4_2" nVehContrib="4" flow="480.00" occupancy="8.83" speed="10.96" harmonicMeanSpeed="10.96" length="7.25" nVehEntered="4"/>
    <interval begin="0.00" end="30.00" id="ooood1_0" nVehContrib="4" flow="480.00" occupancy="7.71" speed="13.29" harmonicMeanSpeed="10.67" length="6.00" nVehEntered="4"/>
    <interval begin="0.00" end="30.00" id="ooood1_1" nVehContrib="4" flow="480.00" occupancy="7.71" speed="15.67" harmonicMeanSpeed="11.76" length="7.00" nVehEntered="4"/>
    <interval begin="0.00" end="30.00" id="ooood1_2" nVehContrib="3" flow="360.00" occupancy="5.35" speed="22.04" harmonicMeanSpeed="15.72" length="8.33" nVehEntered="3"/>
    <interval begin="0.00" end="30.00" id="ooood2_0" nVehContrib="1" flow="120.00" occupancy="2.36" speed="9.89" harmonicMeanSpeed="9.89" length="7.00" nVehEntered="1"/>
    <interval begin="0.00" end="30.00" id="ooood2_1" nVehContrib="2" flow="240.00" occupancy="1.27" speed="44.74" harmonicMeanSpeed="44.58" length="8.50" nVehEntered="2"/>
    <interval begin="0.00" end="30.00" id="ooood2_2" nVehContrib="1" flow="120.00" occupancy="0.63" speed="47.37" harmonicMeanSpeed="47.37" length="9.00" nVehEntered="1"/>
    <interval begin="0.00" end="30.00" id="ooood3_0" nVehContrib="1" flow="120.00" occupancy="0.63" speed="31.58" harmonicMeanSpeed="31.58" length="6.00" nVehEntered="1"/>
    <interval begin="0.00" end="30.00" id="ooood3_1" nVehContrib="3" flow="360.00" occupancy="3.63" speed="32.31" harmonicMeanSpeed="23.79" length="8.33" nVehEntered="3"/>
    <interval begin="0.00" end="30.00" id="ooood3_2" nVehContrib="1" flow="120.00" occupancy="0.63" speed="31.58" harmonicMeanSpeed="31.58" length="6.00" nVehEntered="1"/>
    <interval begin="0.00" end="30.00" id="ooood4_0" nVehContrib="1" flow="120.00" occupancy="0.63" speed="26.32" harmonicMeanSpeed="26.32" length="5.00" nVehEntered="1"/>
    <interval begin="0.00" end="30.00" id="ooood4_1" nVehContrib="7" flow="840.00" occupancy="13.06" speed="19.85" harmonicMeanSpeed="12.29" length="7.43" nVehEntered="7"/>
    <interval begin="0.00" end="30.00" id="ooood4_2" nVehContrib="5" flow="600.00" occupancy="10.07" speed="15.28" harmonicMeanSpeed="11.30" length="7.00" nVehEntered="5"/>
    <interval begin="30.00" end="60.00" id="d1_0" nVehContrib="5" flow="600.00" occupancy="12.22" speed="10.50" harmonicMeanSpeed="10.44" length="7.60" nVehEntered="5"/>
    <interval begin="30.00" end="60.00" id="d1_1" nVehContrib="1" flow="120.00" occupancy="1.49" speed="11.16" harmonicMeanSpeed="11.16" length="5.00" nVehEntered="1"/>
    <interval begin="30.00" end="60.00" id="d1_2" nVehContrib="3" flow="360.00" occupancy="7.82" speed="11.08" harmonicMeanSpeed="11.08" length="8.67" nVehEntered="3"/>
    <interval begin="30.00" end="60.00" id="d2_0" nVehContrib="3" flow="360.00" occupancy="7.46" speed="11.17" harmonicMeanSpeed="11.17" length="8.33" nVehEntered="3"/>
    <interval begin="30.00" end="60.00" id="d2_1" nVehContrib="1" flow="120.00" occupancy="2.39" speed="11.18" harmonicMeanSpeed="11.18" length="8.00" nVehEntered="1"/>
    <interval begin="30.00" end="60.00" id="d2_2" nVehContrib="2" flow="240.00" occupancy="4.77" speed="11.17" harmonicMeanSpeed="11.17" length="8.00" nVehEntered="2"/>
    <interval begin="30.00" end="60.00" id="d3_0" nVehContrib="3" flow="360.00" occupancy="7.46" speed="11.17" harmonicMeanSpeed="11.17" length="8.33" nVehEntered="3"/>
    <interval begin="30.00" end="60.00" id="d3_1" nVehContrib="0" flow="0.00" occupancy="0.00" speed="-1.00" harmonicMeanSpeed="-1.00" length="-1.00" nVehEntered="0"/>
    <interval begin="30.00" end="60.00" id="d3_2" nVehContrib="2" flow="240.00" occupancy="4.78" speed="11.16" harmonicMeanSpeed="11.16" length="8.00" nVehEntered="2"/>
    <interval begin="30.00" end="60.00" id="d4_0" nVehContrib="4" flow="480.00" occupancy="7.03" speed="11.18" harmonicMeanSpeed="11.18" length="6.50" nVehEntered="3"/>
    <interval begin="30.00" end="60.00" id="d4_1" nVehContrib="1" flow="120.00" occupancy="1.79" speed="11.18" harmonicMeanSpeed="11.18" length="6.00" nVehEntered="1"/>
    <interval begin="30.00" end="60.00" id="d4_2" nVehContrib="4" flow="480.00" occupancy="8.00" speed="10.78" harmonicMeanSpeed="10.74" length="6.50" nVehEntered="4"/>
    <interval begin="30.00" end="60.00" id="od1_0" nVehContrib="5" flow="600.00" occupancy="11.86" speed="11.14" harmonicMeanSpeed="11.14" length="7.60" nVehEntered="6"/>
    <interval begin="30.00" end="60.00" id="od1_1" nVehContrib="1" flow="120.00" occupancy="2.40" speed="11.13" harmonicMeanSpeed="11.13" length="8.00" nVehEntered="1"/>
    <interval begin="30.00" end="60.00" id="od1_2" nVehContrib="3" flow="360.00" occupancy="7.30" speed="11.13" harmonicMeanSpeed="11.13" length="8.67" nVehEntered="2"/>
    <interval begin="30.00" end="60.00" id="od2_0" nVehContrib="3" flow="360.00" occupancy="7.47" speed="11.16" harmonicMeanSpeed="11.16" length="8.33" nVehEntered="3"/>
    <interval begin="30.00" end="60.00" id="od2_1" nVehContrib="1" flow="120.00" occupancy="2.39" speed="11.18" harmonicMeanSpeed="11.18" length="8.00" nVehEntered="1"/>
    <interval begin="30.00" end="60.00" id="od2_2" nVehContrib="2" flow="240.00" occupancy="4.78" speed="11.16" harmonicMeanSpeed="11.16" length="8.00" nVehEntered="2"/>
    <interval begin="30.00" end="60.00" id="od3_0" nVehContrib="3" flow="360.00" occupancy="7.48" speed="11.15" harmonicMeanSpeed="11.15" length="8.33" nVehEntered="3"/>
    <interval begin="30.00" end="60.00" id="od3_1" nVehContrib="0" flow="0.00" occupancy="0.00" speed="-1.00" harmonicMeanSpeed="-1.00" length="-1.00" nVehEntered="0"/>
    <interval begin="30.00" end="60.00" id="od3_2" nVehContrib="2" flow="240.00" occupancy="4.79" speed="11.13" harmonicMeanSpeed="11.13" length="8.00" nVehEntered="2"/>
    <interval begin="30.00" end="60.00" id="od4_0" nVehContrib="4" flow="480.00" occupancy="6.67" speed="11.16" harmonicMeanSpeed="11.16" length="7.00" nVehEntered="3"/>
    <interval begin="30.00" end="60.00" id="od4_1" nVehContrib="1" flow="120.00" occupancy="1.79" speed="11.18" harmonicMeanSpeed="11.18" length="6.00" nVehEntered="1"/>
    <interval begin="30.00" end="60.00" id="od4_2" nVehContrib="4" flow="480.00" occupancy="7.77" speed="11.16" harmonicMeanSpeed="11.16" length="6.50" nVehEntered="4"/>
    <interval begin="30.00" end="60.00" id="ood1_0" nVehContrib="5" flow="600.00" occupancy="11.74" speed="11.08" harmonicMeanSpeed="11.08" length="7.80" nVehEntered="5"/>
    <interval begin="30.00" end="60.00" id="ood1_1" nVehContrib="2" flow="240.00" occupancy="3.92" speed="11.06" harmonicMeanSpeed="11.06" length="6.50" nVehEntered="2"/>
    <interval begin="30.00" end="60.00" id="ood1_2" nVehContrib="2" flow="240.00" occupancy="5.13" speed="11.05" harmonicMeanSpeed="11.05" length="8.50" nVehEntered="2"/>
    <interval begin="30.00" end="60.00" id="ood2_0" nVehContrib="3" flow="360.00" occupancy="7.48" speed="11.14" harmonicMeanSpeed="11.14" length="8.33" nVehEntered="3"/>
    <interval begin="30.00" end="60.00" id="ood2_1" nVehContrib="1" flow="120.00" occupancy="2.39" speed="11.18" harmonicMeanSpeed="11.18" length="8.00" nVehEntered="1"/>
    <interval begin="30.00" end="60.00" id="ood2_2" nVehContrib="2" flow="240.00" occupancy="6.14" speed="11.12" harmonicMeanSpeed="11.12" length="8.00" nVehEntered="3"/>
    <interval begin="30.00" end="60.00" id="ood3_0" nVehContrib="2" flow="240.00" occupancy="5.13" speed="11.05" harmonicMeanSpeed="11.05" length="8.50" nVehEntered="2"/>
    <interval begin="30.00" end="60.00" id="ood3_1" nVehContrib="1" flow="120.00" occupancy="0.15" speed="11.18" harmonicMeanSpeed="11.18" length="8.00" nVehEntered="0"/>
    <interval begin="30.00" end="60.00" id="ood3_2" nVehContrib="2" flow="240.00" occupancy="4.96" speed="11.05" harmonicMeanSpeed="11.05" length="8.00" nVehEntered="3"/>
    <interval begin="30.00" end="60.00" id="ood4_0" nVehContrib="3" flow="360.00" occupancy="6.00" speed="11.10" harmonicMeanSpeed="11.10" length="6.67" nVehEntered="3"/>
    <interval begin="30.00" end="60.00" id="ood4_1" nVehContrib="1" flow="120.00" occupancy="1.79" speed="11.18" harmonicMeanSpeed="11.18" length="6.00" nVehEntered="1"/>
    <interval begin="30.00" end="60.00" id="ood4_2" nVehContrib="5" flow="600.00" occupancy="10.51" speed="11.10" harmonicMeanSpeed="11.10" length="7.00" nVehEntered="5"/>
    <interval begin="30.00" end="60.00" id="oood1_0" nVehContrib="4" flow="480.00" occupancy="6.91" speed="10.86" harmonicMeanSpeed="10.86" length="7.50" nVehEntered="3"/>
    <interval begin="30.00" end="60.00" id="oood1_1" nVehContrib="4" flow="480.00" occupancy="8.56" speed="10.90" harmonicMeanSpeed="10.90" length="7.00" nVehEntered="4"/>
    <interval begin="30.00" end="60.00" id="oood1_2" nVehContrib="2" flow="240.00" occupancy="5.22" speed="10.86" harmonicMeanSpeed="10.86" length="8.50" nVehEntered="2"/>
    <interval begin="30.00" end="60.00" id="oood2_0" nVehContrib="3" flow="360.00" occupancy="7.53" speed="11.07" harmonicMeanSpeed="11.07" length="8.33" nVehEntered="3"/>
    <interval begin="30.00" end="60.00" id="oood2_1" nVehContrib="1" flow="120.00" occupancy="2.39" speed="11.18" harmonicMeanSpeed="11.18" length="8.00" nVehEntered="1"/>
    <interval begin="30.00" end="60.00" id="oood2_2" nVehContrib="3" flow="360.00" occupancy="7.59" speed="10.97" harmonicMeanSpeed="10.97" length="8.33" nVehEntered="3"/>
    <interval begin="30.00" end="60.00" id="oood3_0" nVehContrib="2" flow="240.00" occupancy="5.22" speed="10.86" harmonicMeanSpeed="10.86" length="8.50" nVehEntered="2"/>
    <interval begin="30.00" end="60.00" id="oood3_1" nVehContrib="0" flow="0.00" occupancy="0.00" speed="-1.00" harmonicMeanSpeed="-1.00" length="-1.00" nVehEntered="0"/>
    <interval begin="30.00" end="60.00" id="oood3_2" nVehContrib="3" flow="360.00" occupancy="6.44" speed="10.87" harmonicMeanSpeed="10.87" length="7.00" nVehEntered="3"/>
    <interval begin="30.00" end="60.00" id="oood4_0" nVehContrib="2" flow="240.00" occupancy="3.68" speed="10.87" harmonicMeanSpeed="10.87" length="6.00" nVehEntered="2"/>
    <interval begin="30.00" end="60.00" id="oood4_1" nVehContrib="1" flow="120.00" occupancy="1.79" speed="11.18" harmonicMeanSpeed="11.18" length="6.00" nVehEntered="1"/>
    <interval begin="30.00" end="60.00" id="oood4_2" nVehContrib="5" flow="600.00" occupancy="10.38" speed="10.93" harmonicMeanSpeed="10.93" length="6.80" nVehEntered="5"/>
    <interval begin="30.00" end="60.00" id="ooood1_0" nVehContrib="3" flow="360.00" occupancy="7.08" speed="10.84" harmonicMeanSpeed="10.53" length="7.67" nVehEntered="3"/>
    <interval begin="30.00" end="60.00" id="ooood1_1" nVehContrib="4" flow="480.00" occupancy="9.72" speed="9.98" harmonicMeanSpeed="9.80" length="7.25" nVehEntered="5"/>
    <interval begin="30.00" end="60.00" id="ooood1_2" nVehContrib="4" flow="480.00" occupancy="8.52" speed="12.07" harmonicMeanSpeed="12.03" length="7.75" nVehEntered="4"/>
    <interval begin="30.00" end="60.00" id="ooood2_0" nVehContrib="3" flow="360.00" occupancy="7.08" speed="10.36" harmonicMeanSpeed="9.72" length="7.33" nVehEntered="3"/>
    <interval begin="30.00" end="60.00" id="ooood2_1" nVehContrib="2" flow="240.00" occupancy="1.27" speed="44.74" harmonicMeanSpeed="44.58" length="8.50" nVehEntered="2"/>
    <interval begin="30.00" end="60.00" id="ooood2_2" nVehContrib="3" flow="360.00" occupancy="7.08" speed="10.36" harmonicMeanSpeed="10.08" length="7.33" nVehEntered="3"/>
    <interval begin="30.00" end="60.00" id="ooood3_0" nVehContrib="1" flow="120.00" occupancy="2.36" speed="11.31" harmonicMeanSpeed="11.31" length="8.00" nVehEntered="1"/>
    <interval begin="30.00" end="60.00" id="ooood3_1" nVehContrib="0" flow="0.00" occupancy="0.00" speed="-1.00" harmonicMeanSpeed="-1.00" length="-1.00" nVehEntered="0"/>
    <interval begin="30.00" end="60.00" id="ooood3_2" nVehContrib="5" flow="600.00" occupancy="13.13" speed="10.46" harmonicMeanSpeed="10.09" length="7.40" nVehEntered="6"/>
    <interval begin="30.00" end="60.00" id="ooood4_0" nVehContrib="2" flow="240.00" occupancy="4.72" speed="9.89" harmonicMeanSpeed="9.09" length="7.00" nVehEntered="2"/>
    <interval begin="30.00" end="60.00" id="ooood4_1" nVehContrib="2" flow="240.00" occupancy="2.99" speed="20.74" harmonicMeanSpeed="15.07" length="6.50" nVehEntered="2"/>
    <interval begin="30.00" end="60.00" id="ooood4_2" nVehContrib="5" flow="600.00" occupancy="11.79" speed="10.46" harmonicMeanSpeed="9.90" length="7.40" nVehEntered="5"/>
    <interval begin="60.00" end="60.10" id="d1_0" nVehContrib="0" flow="0.00" occupancy="0.00" speed="-1.00" harmonicMeanSpeed="-1.00" length="-1.00" nVehEntered="0"/>
    <interval begin="60.00" end="60.10" id="d1_1" nVehContrib="0" flow="0.00" occupancy="0.00" speed="-1.00" harmonicMeanSpeed="-1.00" length="-1.00" nVehEntered="0"/>
    <interval begin="60.00" end="60.10" id="d1_2" nVehContrib="0" flow="0.00" occupancy="0.00" speed="-1.00" harmonicMeanSpeed="-1.00" length="-1.00" nVehEntered="0"/>
    <interval begin="60.00" end="60.10" id="d2_0" nVehContrib="0" flow="0.00" occupancy="0.00" speed="-1.00" harmonicMeanSpeed="-1.00" length="-1.00" nVehEntered="0"/>
    <interval begin="60.00" end="60.10" id="d2_1" nVehContrib="0" flow="0.00" occupancy="0.00" speed="-1.00" harmonicMeanSpeed="-1.00" length="-1.00" nVehEntered="0"/>
    <interval begin="60.00" end="60.10" id="d2_2" nVehContrib="0" flow="0.00" occupancy="0.00" speed="-1.00" harmonicMeanSpeed="-1.00" length="-1.00" nVehEntered="0"/>
    <interval begin="60.00" end="60.10" id="d3_0" nVehContrib="0" flow="0.00" occupancy="0.00" speed="-1.00" harmonicMeanSpeed="-1.00" length="-1.00" nVehEntered="0"/>
    <interval begin="60.00" end="60.10" id="d3_1" nVehContrib="0" flow="0.00" occupancy="0.00" speed="-1.00" harmonicMeanSpeed="-1.00" length="-1.00" nVehEntered="0"/>
    <interval begin="60.00" end="60.10" id="d3_2" nVehContrib="0" flow="0.00" occupancy="0.00" speed="-1.00" harmonicMeanSpeed="-1.00" length="-1.00" nVehEntered="0"/>
    <interval begin="60.00" end="60.10" id="d4_0" nVehContrib="0" flow="0.00" occupancy="0.00" speed="-1.00" harmonicMeanSpeed="-1.00" length="-1.00" nVehEntered="0"/>
    <interval begin="60.00" end="60.10" id="d4_1" nVehContrib="0" flow="0.00" occupancy="0.00" speed="-1.00" harmonicMeanSpeed="-1.00" length="-1.00" nVehEntered="0"/>
    <interval begin="60.00" end="60.10" id="d4_2" nVehContrib="0" flow="0.00" occupancy="0.00" speed="-1.00" harmonicMeanSpeed="-1.00" length="-1.00" nVehEntered="0"/>
    <interval begin="60.00" end="60.10" id="od1_0" nVehContrib="0" flow="0.00" occupancy="100.00" speed="-1.00" harmonicMeanSpeed="-1.00" length="-1.00" nVehEntered="0"/>
    <interval begin="60.00" end="60.10" id="od1_1" nVehContrib="0" flow="0.00" occupancy="0.00" speed="-1.00" harmonicMeanSpeed="-1.00" length="-1.00" nVehEntered="0"/>
    <interval begin="60.00" end="60.10" id="od1_2" nVehContrib="0" flow="0.00" occupancy="0.00" speed="-1.00" harmonicMeanSpeed="-1.00" length="-1.00" nVehEntered="0"/>
    <interval begin="60.00" end="60.10" id="od2_0" nVehContrib="0" flow="0.00" occupancy="0.00" speed="-1.00" harmonicMeanSpeed="-1.00" length="-1.00" nVehEntered="0"/>
    <interval begin="60.00" end="60.10" id="od2_1" nVehContrib="0" flow="0.00" occupancy="0.00" speed="-1.00" harmonicMeanSpeed="-1.00" length="-1.00" nVehEntered="0"/>
    <interval begin="60.00" end="60.10" id="od2_2" nVehContrib="0" flow="0.00" occupancy="0.00" speed="-1.00" harmonicMeanSpeed="-1.00" length="-1.00" nVehEntered="0"/>
    <interval begin="60.00" end="60.10" id="od3_0" nVehContrib="0" flow="0.00" occupancy="0.00" speed="-1.00" harmonicMeanSpeed="-1.00" length="-1.00" nVehEntered="0"/>
    <interval begin="60.00" end="60.10" id="od3_1" nVehContrib="0" flow="0.00" occupancy="0.00" speed="-1.00" harmonicMeanSpeed="-1.00" length="-1.00" nVehEntered="0"/>
    <interval begin="60.00" end="60.10" id="od3_2" nVehContrib="0" flow="0.00" occupancy="0.00" speed="-1.00" harmonicMeanSpeed="-1.00" length="-1.00" nVehEntered="0"/>
    <interval begin="60.00" end="60.10" id="od4_0" nVehContrib="0" flow="0.00" occupancy="0.00" speed="-1.00" harmonicMeanSpeed="-1.00" length="-1.00" nVehEntered="0"/>
    <interval begin="60.00" end="60.10" id="od4_1" nVehContrib="0" flow="0.00" occupancy="0.00" speed="-1.00" harmonicMeanSpeed="-1.00" length="-1.00" nVehEntered="0"/>
    <interval begin="60.00" end="60.10" id="od4_2" nVehContrib="0" flow="0.00" occupancy="0.00" speed="-1.00" harmonicMeanSpeed="-1.00" length="-1.00" nVehEntered="0"/>
    <interval begin="60.00" end="60.10" id="ood1_0" nVehContrib="0" flow="0.00" occupancy="0.00" speed="-1.00" harmonicMeanSpeed="-1.00" length="-1.00" nVehEntered="0"/>
    <interval begin="60.00" end="60.10" id="ood1_1" nVehContrib="0" flow="0.00" occupancy="0.00" speed="-1.00" harmonicMeanSpeed="-1.00" length="-1.00" nVehEntered="0"/>
    <interval begin="60.00" end="60.10" id="ood1_2" nVehContrib="0" flow="0.00" occupancy="0.00" speed="-1.00" harmonicMeanSpeed="-1.00" length="-1.00" nVehEntered="0"/>
    <interval begin="60.00" end="60.10" id="ood2_0" nVehContrib="0" flow="0.00" occupancy="0.00" speed="-1.00" harmonicMeanSpeed="-1.00" length="-1.00" nVehEntered="0"/>
    <interval begin="60.00" end="60.10" id="ood2_1" nVehContrib="0" flow="0.00" occupancy="0.00" speed="-1.00" harmonicMeanSpeed="-1.00" length="-1.00" nVehEntered="0"/>
    <interval begin="60.00" end="60.10" id="ood2_2" nVehContrib="0" flow="0.00" occupancy="100.00" speed="-1.00" harmonicMeanSpeed="-1.00" length="-1.00" nVehEntered="0"/>
    <interval begin="60.00" end="60.10" id="ood3_0" nVehContrib="0" flow="0.00" occupancy="0.00" speed="-1.00" harmonicMeanSpeed="-1.00" length="-1.00" nVehEntered="0"/>
    <interval begin="60.00" end="60.10" id="ood3_1" nVehContrib="0" flow="0.00" occupancy="0.00" speed="-1.00" harmonicMeanSpeed="-1.00" length="-1.00" nVehEntered="0"/>
    <interval begin="60.00" end="60.10" id="ood3_2" nVehContrib="0" flow="0.00" occupancy="100.00" speed="-1.00" harmonicMeanSpeed="-1.00" length="-1.00" nVehEntered="0"/>
    <interval begin="60.00" end="60.10" id="ood4_0" nVehContrib="0" flow="0.00" occupancy="0.00" speed="-1.00" harmonicMeanSpeed="-1.00" length="-1.00" nVehEntered="0"/>
    <interval begin="60.00" end="60.10" id="ood4_1" nVehContrib="0" flow="0.00" occupancy="0.00" speed="-1.00" harmonicMeanSpeed="-1.00" length="-1.00" nVehEntered="0"/>
    <interval begin="60.00" end="60.10" id="ood4_2" nVehContrib="0" flow="0.00" occupancy="0.00" speed="-1.00" harmonicMeanSpeed="-1.00" length="-1.00" nVehEntered="0"/>
    <interval begin="60.00" end="60.10" id="oood1_0" nVehContrib="0" flow="0.00" occupancy="0.00" speed="-1.00" harmonicMeanSpeed="-1.00" length="-1.00" nVehEntered="0"/>
    <interval begin="60.00" end="60.10" id="oood1_1" nVehContrib="0" flow="0.00" occupancy="0.00" speed="-1.00" harmonicMeanSpeed="-1.00" length="-1.00" nVehEntered="0"/>
    <interval begin="60.00" end="60.10" id="oood1_2" nVehContrib="0" flow="0.00" occupancy="0.00" speed="-1.00" harmonicMeanSpeed="-1.00" length="-1.00" nVehEntered="0"/>
    <interval begin="60.00" end="60.10" id="oood2_0" nVehContrib="0" flow="0.00" occupancy="0.00" speed="-1.00" harmonicMeanSpeed="-1.00" length="-1.00" nVehEntered="0"/>
    <interval begin="60.00" end="60.10" id="oood2_1" nVehContrib="0" flow="0.00" occupancy="0.00" speed="-1.00" harmonicMeanSpeed="-1.00" length="-1.00" nVehEntered="0"/>
    <interval begin="60.00" end="60.10" id="oood2_2" nVehContrib="0" flow="0.00" occupancy="0.00" speed="-1.00" harmonicMeanSpeed="-1.00" length="-1.00" nVehEntered="0"/>
    <interval begin="60.00" end="60.10" id="oood3_0" nVehContrib="0" flow="0.00" occupancy="0.00" speed="-1.00" harmonicMeanSpeed="-1.00" length="-1.00" nVehEntered="0"/>
    <interval begin="60.00" end="60.10" id="oood3_1" nVehContrib="0" flow="0.00" occupancy="0.00" speed="-1.00" harmonicMeanSpeed="-1.00" length="-1.00" nVehEntered="0"/>
    <interval begin="60.00" end="60.10" id="oood3_2" nVehContrib="0" flow="0.00" occupancy="0.00" speed="-1.00" harmonicMeanSpeed="-1.00" length="-1.00" nVehEntered="0"/>
    <interval begin="60.00" end="60.10" id="oood4_0" nVehContrib="0" flow="0.00" occupancy="0.00" speed="-1.00" harmonicMeanSpeed="-1.00" length="-1.00" nVehEntered="0"/>
    <interval begin="60.00" end="60.10" id="oood4_1" nVehContrib="0" flow="0.00" occupancy="0.00" speed="-1.00" harmonicMeanSpeed="-1.00" length="-1.00" nVehEntered="0"/>
    <interval begin="60.00" end="60.10" id="oood4_2" nVehContrib="0" flow="0.00" occupancy="0.00" speed="-1.00" harmonicMeanSpeed="-1.00" length="-1.00" nVehEntered="0"/>
    <interval begin="60.00" end="60.10" id="ooood1_0" nVehContrib="0" flow="0.00" occupancy="0.00" speed="-1.00" harmonicMeanSpeed="-1.00" length="-1.00" nVehEntered="0"/>