<?xml version="1.0" encoding="UTF-8"?>

<!-- generated on 2022-05-09 17:35:18 by Eclipse SUMO GUI Version 1.12.0
<configuration xmlns:xsi="http://www.w3.org/2001/XMLSchema-instance" xsi:noNamespaceSchemaLocation="http://sumo.dlr.de/xsd/sumoConfiguration.xsd">

    <input>
        <net-file value="data/lane3.net.xml"/>
        <route-files value="data/icacc+.rou.xml"/>
        <additional-files value="data/icacc+.det.xml"/>
    </input>

    <output>
        <tripinfo-output value="tripinfo.xml"/>
    </output>

    <time>
        <begin value="0"/>
        <step-length value="0.05"/>
    </time>

    <processing>
        <collision.mingap-factor value="0"/>
        <time-to-teleport value="-1"/>
        <lanechange.duration value="0.5"/>
    </processing>

    <report>
        <verbose value="true"/>
        <no-step-log value="true"/>
    </report>

    <traci_server>
        <remote-port value="14264"/>
    </traci_server>

    <gui_only>
        <start value="true"/>
        <tracker-interval value="0.05"/>
    </gui_only>

</configuration>
-->

<detector xmlns:xsi="http://www.w3.org/2001/XMLSchema-instance" xsi:noNamespaceSchemaLocation="http://sumo.dlr.de/xsd/det_e1_file.xsd">
    <interval begin="0.00" end="19.85" id="d1_0" nVehContrib="0" flow="0.00" occupancy="0.00" speed="-1.00" harmonicMeanSpeed="-1.00" length="-1.00" nVehEntered="0"/>
    <interval begin="0.00" end="19.85" id="d1_1" nVehContrib="1" flow="181.36" occupancy="2.25" speed="11.18" harmonicMeanSpeed="11.18" length="5.00" nVehEntered="1"/>
    <interval begin="0.00" end="19.85" id="d1_2" nVehContrib="3" flow="544.08" occupancy="10.36" speed="11.18" harmonicMeanSpeed="11.18" length="7.67" nVehEntered="3"/>
    <interval begin="0.00" end="19.85" id="d2_0" nVehContrib="2" flow="362.72" occupancy="4.96" speed="11.18" harmonicMeanSpeed="11.18" length="5.50" nVehEntered="2"/>
    <interval begin="0.00" end="19.85" id="d2_1" nVehContrib="1" flow="181.36" occupancy="2.25" speed="11.18" harmonicMeanSpeed="11.18" length="5.00" nVehEntered="1"/>
    <interval begin="0.00" end="19.85" id="d2_2" nVehContrib="1" flow="181.36" occupancy="2.25" speed="11.18" harmonicMeanSpeed="11.18" length="5.00" nVehEntered="1"/>
    <interval begin="0.00" end="19.85" id="d3_0" nVehContrib="0" flow="0.00" occupancy="0.00" speed="-1.00" harmonicMeanSpeed="-1.00" length="-1.00" nVehEntered="0"/>
    <interval begin="0.00" end="19.85" id="d3_1" nVehContrib="0" flow="0.00" occupancy="0.00" speed="-1.00" harmonicMeanSpeed="-1.00" length="-1.00" nVehEntered="0"/>
    <interval begin="0.00" end="19.85" id="d3_2" nVehContrib="2" flow="362.72" occupancy="6.76" speed="11.18" harmonicMeanSpeed="11.18" length="7.50" nVehEntered="2"/>
    <interval begin="0.00" end="19.85" id="d4_0" nVehContrib="3" flow="544.08" occupancy="10.86" speed="11.14" harmonicMeanSpeed="11.14" length="8.00" nVehEntered="3"/>
    <interval begin="0.00" end="19.85" id="d4_1" nVehContrib="0" flow="0.00" occupancy="0.00" speed="-1.00" harmonicMeanSpeed="-1.00" length="-1.00" nVehEntered="0"/>
    <interval begin="0.00" end="19.85" id="d4_2" nVehContrib="2" flow="362.72" occupancy="8.11" speed="11.18" harmonicMeanSpeed="11.18" length="9.00" nVehEntered="2"/>
    <interval begin="0.00" end="19.85" id="od1_0" nVehContrib="0" flow="0.00" occupancy="0.00" speed="-1.00" harmonicMeanSpeed="-1.00" length="-1.00" nVehEntered="0"/>
    <interval begin="0.00" end="19.85" id="od1_1" nVehContrib="1" flow="181.36" occupancy="2.25" speed="11.18" harmonicMeanSpeed="11.18" length="5.00" nVehEntered="1"/>
    <interval begin="0.00" end="19.85" id="od1_2" nVehContrib="4" flow="725.44" occupancy="14.42" speed="11.18" harmonicMeanSpeed="11.18" length="8.00" nVehEntered="4"/>
    <interval begin="0.00" end="19.85" id="od2_0" nVehContrib="3" flow="544.08" occupancy="7.66" speed="11.18" harmonicMeanSpeed="11.18" length="5.67" nVehEntered="3"/>
    <interval begin="0.00" end="19.85" id="od2_1" nVehContrib="1" flow="181.36" occupancy="2.25" speed="11.18" harmonicMeanSpeed="11.18" length="5.00" nVehEntered="1"/>
    <interval begin="0.00" end="19.85" id="od2_2" nVehContrib="1" flow="181.36" occupancy="2.25" speed="11.18" harmonicMeanSpeed="11.18" length="5.00" nVehEntered="1"/>
    <interval begin="0.00" end="19.85" id="od3_0" nVehContrib="1" flow="181.36" occupancy="3.23" speed="11.18" harmonicMeanSpeed="11.18" length="7.00" nVehEntered="2"/>
    <interval begin="0.00" end="19.85" id="od3_1" nVehContrib="0" flow="0.00" occupancy="0.00" speed="-1.00" harmonicMeanSpeed="-1.00" length="-1.00" nVehEntered="0"/>
    <interval begin="0.00" end="19.85" id="od3_2" nVehContrib="2" flow="362.72" occupancy="6.76" speed="11.18" harmonicMeanSpeed="11.18" length="7.50" nVehEntered="2"/>
    <interval begin="0.00" end="19.85" id="od4_0" nVehContrib="4" flow="725.44" occupancy="13.07" speed="11.18" harmonicMeanSpeed="11.18" length="7.25" nVehEntered="4"/>
    <interval begin="0.00" end="19.85" id="od4_1" nVehContrib="0" flow="0.00" occupancy="0.00" speed="-1.00" harmonicMeanSpeed="-1.00" length="-1.00" nVehEntered="0"/>
    <interval begin="0.00" end="19.85" id="od4_2" nVehContrib="2" flow="362.72" occupancy="8.11" speed="11.18" harmonicMeanSpeed="11.18" length="9.00" nVehEntered="2"/>
    <interval begin="0.00" end="19.85" id="ood1_0" nVehContrib="0" flow="0.00" occupancy="0.00" speed="-1.00" harmonicMeanSpeed="-1.00" length="-1.00" nVehEntered="0"/>
    <interval begin="0.00" end="19.85" id="ood1_1" nVehContrib="2" flow="362.72" occupancy="5.41" speed="11.18" harmonicMeanSpeed="11.18" length="6.00" nVehEntered="2"/>
    <interval begin="0.00" end="19.85" id="ood1_2" nVehContrib="4" flow="725.44" occupancy="14.42" speed="11.18" harmonicMeanSpeed="11.18" length="8.00" nVehEntered="4"/>
    <interval begin="0.00" end="19.85" id="ood2_0" nVehContrib="4" flow="725.44" occupancy="14.47" speed="11.18" harmonicMeanSpeed="11.18" length="6.25" nVehEntered="5"/>
    <interval begin="0.00" end="19.85" id="ood2_1" nVehContrib="1" flow="181.36" occupancy="2.25" speed="11.18" harmonicMeanSpeed="11.18" length="5.00" nVehEntered="1"/>
    <interval begin="0.00" end="19.85" id="ood2_2" nVehContrib="1" flow="181.36" occupancy="2.25" speed="11.18" harmonicMeanSpeed="11.18" length="5.00" nVehEntered="1"/>
    <interval begin="0.00" end="19.85" id="ood3_0" nVehContrib="2" flow="362.72" occupancy="7.88" speed="11.18" harmonicMeanSpeed="11.18" length="6.50" nVehEntered="3"/>
    <interval begin="0.00" end="19.85" id="ood3_1" nVehContrib="0" flow="0.00" occupancy="0.00" speed="-1.00" harmonicMeanSpeed="-1.00" length="-1.00" nVehEntered="0"/>
    <interval begin="0.00" end="19.85" id="ood3_2" nVehContrib="2" flow="362.72" occupancy="6.76" speed="11.18" harmonicMeanSpeed="11.18" length="7.50" nVehEntered="2"/>
    <interval begin="0.00" end="19.85" id="ood4_0" nVehContrib="4" flow="725.44" occupancy="13.07" speed="11.18" harmonicMeanSpeed="11.18" length="7.25" nVehEntered="4"/>
    <interval begin="0.00" end="19.85" id="ood4_1" nVehContrib="0" flow="0.00" occupancy="0.00" speed="-1.00" harmonicMeanSpeed="-1.00" length="-1.00" nVehEntered="0"/>
    <interval begin="0.00" end="19.85" id="ood4_2" nVehContrib="2" flow="362.72" occupancy="8.11" speed="11.18" harmonicMeanSpeed="11.18" length="9.00" nVehEntered="2"/>
    <interval begin="0.00" end="19.85" id="oood1_0" nVehContrib="1" flow="181.36" occupancy="2.25" speed="11.18" harmonicMeanSpeed="11.18" length="5.00" nVehEntered="1"/>
    <interval begin="0.00" end="19.85" id="oood1_1" nVehContrib="2" flow="362.72" occupancy="5.75" speed="10.63" harmonicMeanSpeed="10.60" length="6.00" nVehEntered="2"/>
    <interval begin="0.00" end="19.85" id="oood1_2" nVehContrib="4" flow="725.44" occupancy="14.42" speed="11.18" harmonicMeanSpeed="11.18" length="8.00" nVehEntered="4"/>
    <interval begin="0.00" end="19.85" id="oood2_0" nVehContrib="5" flow="906.80" occupancy="15.32" speed="11.18" harmonicMeanSpeed="11.18" length="6.80" nVehEntered="5"/>
    <interval begin="0.00" end="19.85" id="oood2_1" nVehContrib="1" flow="181.36" occupancy="2.25" speed="11.18" harmonicMeanSpeed="11.18" length="5.00" nVehEntered="1"/>
    <interval begin="0.00" end="19.85" id="oood2_2" nVehContrib="2" flow="362.72" occupancy="5.41" speed="11.18" harmonicMeanSpeed="11.18" length="6.00" nVehEntered="2"/>
    <interval begin="0.00" end="19.85" id="oood3_0" nVehContrib="3" flow="544.08" occupancy="8.56" speed="11.18" harmonicMeanSpeed="11.18" length="6.33" nVehEntered="3"/>
    <interval begin="0.00" end="19.85" id="oood3_1" nVehContrib="0" flow="0.00" occupancy="0.00" speed="-1.00" harmonicMeanSpeed="-1.00" length="-1.00" nVehEntered="0"/>
    <interval begin="0.00" end="19.85" id="oood3_2" nVehContrib="2" flow="362.72" occupancy="6.76" speed="11.18" harmonicMeanSpeed="11.18" length="7.50" nVehEntered="2"/>
    <interval begin="0.00" end="19.85" id="oood4_0" nVehContrib="4" flow="725.44" occupancy="15.47" speed="11.18" harmonicMeanSpeed="11.18" length="7.25" nVehEntered="5"/>
    <interval begin="0.00" end="19.85" id="oood4_1" nVehContrib="0" flow="0.00" occupancy="0.00" speed="-1.00" harmonicMeanSpeed="-1.00" length="-1.00" nVehEntered="0"/>
    <interval begin="0.00" end="19.85" id="oood4_2" nVehContrib="3" flow="544.08" occupancy="11.27" speed="11.18" harmonicMeanSpeed="11.18" length="8.33" nVehEntered="3"/>
    <interval begin="0.00" end="19.85" id="ooood1_0" nVehContrib="5" flow="906.80" occupancy="3.29" speed="59.74" harmonicMeanSpeed="58.85" length="7.80" nVehEntered="5"/>
    <interval begin="0.00" end="19.85" id="ooood1_1" nVehContrib="0" flow="0.00" occupancy="0.00" speed="-1.00" harmonicMeanSpeed="-1.00" length="-1.00" nVehEntered="0"/>
    <interval begin="0.00" end="19.85" id="ooood1_2" nVehContrib="3" flow="544.08" occupancy="1.98" speed="43.16" harmonicMeanSpeed="42.18" length="5.67" nVehEntered="3"/>
    <interval begin="0.00" end="19.85" id="ooood2_0" nVehContrib="3" flow="544.08" occupancy="1.97" speed="53.64" harmonicMeanSpeed="51.09" length="7.00" nVehEntered="3"/>
    <interval begin="0.00" end="19.85" id="ooood2_1" nVehContrib="1" flow="181.36" occupancy="0.67" speed="37.85" harmonicMeanSpeed="37.85" length="5.00" nVehEntered="1"/>
    <interval begin="0.00" end="19.85" id="ooood2_2" nVehContrib="7" flow="1269.52" occupancy="4.61" speed="54.67" harmonicMeanSpeed="52.33" length="7.14" nVehEntered="7"/>
    <interval begin="0.00" end="19.85" id="ooood3_0" nVehContrib="6" flow="1088.16" occupancy="3.94" speed="45.98" harmonicMeanSpeed="45.12" length="6.00" nVehEntered="6"/>
    <interval begin="0.00" end="19.85" id="ooood3_1" nVehContrib="3" flow="544.08" occupancy="1.97" speed="56.19" harmonicMeanSpeed="52.71" length="7.33" nVehEntered="3"/>
    <interval begin="0.00" end="19.85" id="ooood3_2" nVehContrib="1" flow="181.36" occupancy="0.66" speed="45.98" harmonicMeanSpeed="45.98" length="6.00" nVehEntered="1"/>
    <interval begin="0.00" end="19.85" id="ooood4_0" nVehContrib="5" flow="906.80" occupancy="3.29" speed="47.51" harmonicMeanSpeed="45.37" length="6.20" nVehEntered="5"/>
    <interval begin="0.00" end="19.85" id="ooood4_1" nVehContrib="2" flow="362.72" occupancy="1.31" speed="65.13" harmonicMeanSpeed="64.91" length="8.50" nVehEntered="2"/>
    <interval begin="0.00" end="19.85" id="ooood4_2" nVehContrib="4" flow="725.44" occupancy="2.63" speed="57.47" harmonicMeanSpeed="56.79" length="7.50" nVehEntered="4"/>
</detector>
