<?xml version="1.0" encoding="UTF-8"?>

<!-- generated on 04/19/21 01:56:00 by Eclipse SUMO GUI Version 1.8.0
<configuration xmlns:xsi="http://www.w3.org/2001/XMLSchema-instance" xsi:noNamespaceSchemaLocation="http://sumo.dlr.de/xsd/sumoConfiguration.xsd">

    <input>
        <net-file value="data/lane3_roundabout.net.xml"/>
        <route-files value="data/icacc+.rou.xml"/>
        <additional-files value="data/icacc+.det.xml"/>
    </input>

    <output>
        <tripinfo-output value="tripinfo.xml"/>
    </output>

    <time>
        <begin value="0"/>
        <step-length value="0.1"/>
    </time>

    <processing>
        <collision.mingap-factor value="0"/>
        <time-to-teleport value="-1"/>
        <lanechange.duration value="0.5"/>
    </processing>

    <report>
        <verbose value="true"/>
        <no-step-log value="true"/>
    </report>

    <traci_server>
        <remote-port value="4718"/>
    </traci_server>

    <gui_only>
        <start value="true"/>
        <tracker-interval value="0.1"/>
    </gui_only>

</configuration>
-->

<detector xmlns:xsi="http://www.w3.org/2001/XMLSchema-instance" xsi:noNamespaceSchemaLocation="http://sumo.dlr.de/xsd/det_e1_file.xsd">
    <interval begin="0.00" end="30.00" id="d1_0" nVehContrib="1" flow="120.00" occupancy="2.68" speed="11.18" harmonicMeanSpeed="11.18" length="9.00" nVehEntered="1"/>
    <interval begin="0.00" end="30.00" id="d1_1" nVehContrib="0" flow="0.00" occupancy="0.00" speed="-1.00" harmonicMeanSpeed="-1.00" length="-1.00" nVehEntered="0"/>
    <interval begin="0.00" end="30.00" id="d1_2" nVehContrib="0" flow="0.00" occupancy="0.00" speed="-1.00" harmonicMeanSpeed="-1.00" length="-1.00" nVehEntered="0"/>
    <interval begin="0.00" end="30.00" id="d2_0" nVehContrib="4" flow="480.00" occupancy="8.05" speed="11.18" harmonicMeanSpeed="11.18" length="6.75" nVehEntered="4"/>
    <interval begin="0.00" end="30.00" id="d2_1" nVehContrib="0" flow="0.00" occupancy="0.00" speed="-1.00" harmonicMeanSpeed="-1.00" length="-1.00" nVehEntered="0"/>
    <interval begin="0.00" end="30.00" id="d2_2" nVehContrib="0" flow="0.00" occupancy="0.00" speed="-1.00" harmonicMeanSpeed="-1.00" length="-1.00" nVehEntered="0"/>
    <interval begin="0.00" end="30.00" id="d3_0" nVehContrib="2" flow="240.00" occupancy="4.47" speed="11.18" harmonicMeanSpeed="11.18" length="7.50" nVehEntered="2"/>
    <interval begin="0.00" end="30.00" id="d3_1" nVehContrib="0" flow="0.00" occupancy="0.00" speed="-1.00" harmonicMeanSpeed="-1.00" length="-1.00" nVehEntered="0"/>
    <interval begin="0.00" end="30.00" id="d3_2" nVehContrib="0" flow="0.00" occupancy="0.00" speed="-1.00" harmonicMeanSpeed="-1.00" length="-1.00" nVehEntered="0"/>
    <interval begin="0.00" end="30.00" id="d4_0" nVehContrib="1" flow="120.00" occupancy="1.79" speed="11.18" harmonicMeanSpeed="11.18" length="6.00" nVehEntered="1"/>
    <interval begin="0.00" end="30.00" id="d4_1" nVehContrib="0" flow="0.00" occupancy="0.00" speed="-1.00" harmonicMeanSpeed="-1.00" length="-1.00" nVehEntered="0"/>
    <interval begin="0.00" end="30.00" id="d4_2" nVehContrib="0" flow="0.00" occupancy="0.00" speed="-1.00" harmonicMeanSpeed="-1.00" length="-1.00" nVehEntered="0"/>
    <interval begin="0.00" end="30.00" id="od1_0" nVehContrib="1" flow="120.00" occupancy="2.68" speed="11.18" harmonicMeanSpeed="11.18" length="9.00" nVehEntered="1"/>
    <interval begin="0.00" end="30.00" id="od1_1" nVehContrib="0" flow="0.00" occupancy="0.00" speed="-1.00" harmonicMeanSpeed="-1.00" length="-1.00" nVehEntered="0"/>
    <interval begin="0.00" end="30.00" id="od1_2" nVehContrib="0" flow="0.00" occupancy="0.00" speed="-1.00" harmonicMeanSpeed="-1.00" length="-1.00" nVehEntered="0"/>
    <interval begin="0.00" end="30.00" id="od2_0" nVehContrib="4" flow="480.00" occupancy="8.05" speed="11.18" harmonicMeanSpeed="11.18" length="6.75" nVehEntered="4"/>
    <interval begin="0.00" end="30.00" id="od2_1" nVehContrib="0" flow="0.00" occupancy="0.00" speed="-1.00" harmonicMeanSpeed="-1.00" length="-1.00" nVehEntered="0"/>
    <interval begin="0.00" end="30.00" id="od2_2" nVehContrib="0" flow="0.00" occupancy="0.00" speed="-1.00" harmonicMeanSpeed="-1.00" length="-1.00" nVehEntered="0"/>
    <interval begin="0.00" end="30.00" id="od3_0" nVehContrib="2" flow="240.00" occupancy="4.47" speed="11.18" harmonicMeanSpeed="11.18" length="7.50" nVehEntered="2"/>
    <interval begin="0.00" end="30.00" id="od3_1" nVehContrib="0" flow="0.00" occupancy="0.00" speed="-1.00" harmonicMeanSpeed="-1.00" length="-1.00" nVehEntered="0"/>
    <interval begin="0.00" end="30.00" id="od3_2" nVehContrib="0" flow="0.00" occupancy="0.00" speed="-1.00" harmonicMeanSpeed="-1.00" length="-1.00" nVehEntered="0"/>
    <interval begin="0.00" end="30.00" id="od4_0" nVehContrib="1" flow="120.00" occupancy="1.79" speed="11.18" harmonicMeanSpeed="11.18" length="6.00" nVehEntered="1"/>
    <interval begin="0.00" end="30.00" id="od4_1" nVehContrib="0" flow="0.00" occupancy="0.00" speed="-1.00" harmonicMeanSpeed="-1.00" length="-1.00" nVehEntered="0"/>
    <interval begin="0.00" end="30.00" id="od4_2" nVehContrib="0" flow="0.00" occupancy="0.00" speed="-1.00" harmonicMeanSpeed="-1.00" length="-1.00" nVehEntered="0"/>
    <interval begin="0.00" end="30.00" id="ood1_0" nVehContrib="1" flow="120.00" occupancy="2.68" speed="11.18" harmonicMeanSpeed="11.18" length="9.00" nVehEntered="1"/>
    <interval begin="0.00" end="30.00" id="ood1_1" nVehContrib="0" flow="0.00" occupancy="0.00" speed="-1.00" harmonicMeanSpeed="-1.00" length="-1.00" nVehEntered="0"/>
    <interval begin="0.00" end="30.00" id="ood1_2" nVehContrib="0" flow="0.00" occupancy="0.00" speed="-1.00" harmonicMeanSpeed="-1.00" length="-1.00" nVehEntered="0"/>
    <interval begin="0.00" end="30.00" id="ood2_0" nVehContrib="4" flow="480.00" occupancy="9.42" speed="11.18" harmonicMeanSpeed="11.18" length="6.75" nVehEntered="5"/>
    <interval begin="0.00" end="30.00" id="ood2_1" nVehContrib="0" flow="0.00" occupancy="0.00" speed="-1.00" harmonicMeanSpeed="-1.00" length="-1.00" nVehEntered="0"/>
    <interval begin="0.00" end="30.00" id="ood2_2" nVehContrib="0" flow="0.00" occupancy="0.00" speed="-1.00" harmonicMeanSpeed="-1.00" length="-1.00" nVehEntered="0"/>
    <interval begin="0.00" end="30.00" id="ood3_0" nVehContrib="2" flow="240.00" occupancy="4.47" speed="11.18" harmonicMeanSpeed="11.18" length="7.50" nVehEntered="2"/>
    <interval begin="0.00" end="30.00" id="ood3_1" nVehContrib="0" flow="0.00" occupancy="0.00" speed="-1.00" harmonicMeanSpeed="-1.00" length="-1.00" nVehEntered="0"/>
    <interval begin="0.00" end="30.00" id="ood3_2" nVehContrib="0" flow="0.00" occupancy="0.00" speed="-1.00" harmonicMeanSpeed="-1.00" length="-1.00" nVehEntered="0"/>
    <interval begin="0.00" end="30.00" id="ood4_0" nVehContrib="1" flow="120.00" occupancy="1.79" speed="11.18" harmonicMeanSpeed="11.18" length="6.00" nVehEntered="1"/>
    <interval begin="0.00" end="30.00" id="ood4_1" nVehContrib="0" flow="0.00" occupancy="0.00" speed="-1.00" harmonicMeanSpeed="-1.00" length="-1.00" nVehEntered="0"/>
    <interval begin="0.00" end="30.00" id="ood4_2" nVehContrib="0" flow="0.00" occupancy="0.00" speed="-1.00" harmonicMeanSpeed="-1.00" length="-1.00" nVehEntered="0"/>
    <interval begin="0.00" end="30.00" id="oood1_0" nVehContrib="1" flow="120.00" occupancy="2.70" speed="11.18" harmonicMeanSpeed="11.18" length="9.00" nVehEntered="2"/>
    <interval begin="0.00" end="30.00" id="oood1_1" nVehContrib="0" flow="0.00" occupancy="0.00" speed="-1.00" harmonicMeanSpeed="-1.00" length="-1.00" nVehEntered="0"/>
    <interval begin="0.00" end="30.00" id="oood1_2" nVehContrib="0" flow="0.00" occupancy="0.00" speed="-1.00" harmonicMeanSpeed="-1.00" length="-1.00" nVehEntered="0"/>
    <interval begin="0.00" end="30.00" id="oood2_0" nVehContrib="5" flow="600.00" occupancy="9.54" speed="11.18" harmonicMeanSpeed="11.18" length="6.40" nVehEntered="5"/>
    <interval begin="0.00" end="30.00" id="oood2_1" nVehContrib="0" flow="0.00" occupancy="0.00" speed="-1.00" harmonicMeanSpeed="-1.00" length="-1.00" nVehEntered="0"/>
    <interval begin="0.00" end="30.00" id="oood2_2" nVehContrib="0" flow="0.00" occupancy="0.00" speed="-1.00" harmonicMeanSpeed="-1.00" length="-1.00" nVehEntered="0"/>
    <interval begin="0.00" end="30.00" id="oood3_0" nVehContrib="2" flow="240.00" occupancy="4.47" speed="11.18" harmonicMeanSpeed="11.18" length="7.50" nVehEntered="2"/>
    <interval begin="0.00" end="30.00" id="oood3_1" nVehContrib="0" flow="0.00" occupancy="0.00" speed="-1.00" harmonicMeanSpeed="-1.00" length="-1.00" nVehEntered="0"/>
    <interval begin="0.00" end="30.00" id="oood3_2" nVehContrib="0" flow="0.00" occupancy="0.00" speed="-1.00" harmonicMeanSpeed="-1.00" length="-1.00" nVehEntered="0"/>
    <interval begin="0.00" end="30.00" id="oood4_0" nVehContrib="3" flow="360.00" occupancy="5.66" speed="11.18" harmonicMeanSpeed="11.18" length="6.33" nVehEntered="3"/>
    <interval begin="0.00" end="30.00" id="oood4_1" nVehContrib="0" flow="0.00" occupancy="0.00" speed="-1.00" harmonicMeanSpeed="-1.00" length="-1.00" nVehEntered="0"/>
    <interval begin="0.00" end="30.00" id="oood4_2" nVehContrib="0" flow="0.00" occupancy="0.00" speed="-1.00" harmonicMeanSpeed="-1.00" length="-1.00" nVehEntered="0"/>
    <interval begin="0.00" end="30.00" id="ooood1_0" nVehContrib="2" flow="240.00" occupancy="1.20" speed="38.78" harmonicMeanSpeed="37.99" length="7.00" nVehEntered="2"/>
    <interval begin="0.00" end="30.00" id="ooood1_1" nVehContrib="1" flow="120.00" occupancy="0.60" speed="49.86" harmonicMeanSpeed="49.86" length="9.00" nVehEntered="1"/>
    <interval begin="0.00" end="30.00" id="ooood1_2" nVehContrib="1" flow="120.00" occupancy="0.60" speed="49.86" harmonicMeanSpeed="49.86" length="9.00" nVehEntered="1"/>
    <interval begin="0.00" end="30.00" id="ooood2_0" nVehContrib="2" flow="240.00" occupancy="1.20" speed="30.47" harmonicMeanSpeed="30.22" length="5.50" nVehEntered="2"/>
    <interval begin="0.00" end="30.00" id="ooood2_1" nVehContrib="3" flow="360.00" occupancy="1.81" speed="44.32" harmonicMeanSpeed="43.86" length="8.00" nVehEntered="3"/>
    <interval begin="0.00" end="30.00" id="ooood2_2" nVehContrib="1" flow="120.00" occupancy="0.60" speed="27.70" harmonicMeanSpeed="27.70" length="5.00" nVehEntered="1"/>
    <interval begin="0.00" end="30.00" id="ooood3_0" nVehContrib="2" flow="240.00" occupancy="1.20" speed="38.78" harmonicMeanSpeed="37.99" length="7.00" nVehEntered="2"/>
    <interval begin="0.00" end="30.00" id="ooood3_1" nVehContrib="2" flow="240.00" occupancy="1.20" speed="44.32" harmonicMeanSpeed="43.63" length="8.00" nVehEntered="2"/>
    <interval begin="0.00" end="30.00" id="ooood3_2" nVehContrib="1" flow="120.00" occupancy="0.60" speed="44.32" harmonicMeanSpeed="44.32" length="8.00" nVehEntered="1"/>
    <interval begin="0.00" end="30.00" id="ooood4_0" nVehContrib="2" flow="240.00" occupancy="1.20" speed="36.01" harmonicMeanSpeed="35.80" length="6.50" nVehEntered="2"/>
    <interval begin="0.00" end="30.00" id="ooood4_1" nVehContrib="1" flow="120.00" occupancy="0.60" speed="27.70" harmonicMeanSpeed="27.70" length="5.00" nVehEntered="1"/>
    <interval begin="0.00" end="30.00" id="ooood4_2" nVehContrib="2" flow="240.00" occupancy="1.20" speed="38.78" harmonicMeanSpeed="37.99" length="7.00" nVehEntered="2"/>
    <interval begin="30.00" end="60.00" id="d1_0" nVehContrib="7" flow="840.00" occupancy="15.80" speed="11.18" harmonicMeanSpeed="11.18" length="7.57" nVehEntered="7"/>
    <interval begin="30.00" end="60.00" id="d1_1" nVehContrib="0" flow="0.00" occupancy="0.00" speed="-1.00" harmonicMeanSpeed="-1.00" length="-1.00" nVehEntered="0"/>
    <interval begin="30.00" end="60.00" id="d1_2" nVehContrib="2" flow="240.00" occupancy="3.28" speed="11.18" harmonicMeanSpeed="11.18" length="5.50" nVehEntered="2"/>
    <interval begin="30.00" end="60.00" id="d2_0" nVehContrib="2" flow="240.00" occupancy="4.27" speed="11.18" harmonicMeanSpeed="11.18" length="6.50" nVehEntered="3"/>
    <interval begin="30.00" end="60.00" id="d2_1" nVehContrib="0" flow="0.00" occupancy="0.00" speed="-1.00" harmonicMeanSpeed="-1.00" length="-1.00" nVehEntered="0"/>
    <interval begin="30.00" end="60.00" id="d2_2" nVehContrib="3" flow="360.00" occupancy="6.26" speed="11.18" harmonicMeanSpeed="11.18" length="7.00" nVehEntered="3"/>
    <interval begin="30.00" end="60.00" id="d3_0" nVehContrib="5" flow="600.00" occupancy="11.33" speed="11.18" harmonicMeanSpeed="11.18" length="7.60" nVehEntered="5"/>
    <interval begin="30.00" end="60.00" id="d3_1" nVehContrib="0" flow="0.00" occupancy="0.00" speed="-1.00" harmonicMeanSpeed="-1.00" length="-1.00" nVehEntered="0"/>
    <interval begin="30.00" end="60.00" id="d3_2" nVehContrib="1" flow="120.00" occupancy="1.79" speed="11.18" harmonicMeanSpeed="11.18" length="6.00" nVehEntered="1"/>
    <interval begin="30.00" end="60.00" id="d4_0" nVehContrib="10" flow="1200.00" occupancy="17.89" speed="11.18" harmonicMeanSpeed="11.18" length="6.00" nVehEntered="10"/>
    <interval begin="30.00" end="60.00" id="d4_1" nVehContrib="0" flow="0.00" occupancy="0.00" speed="-1.00" harmonicMeanSpeed="-1.00" length="-1.00" nVehEntered="0"/>
    <interval begin="30.00" end="60.00" id="d4_2" nVehContrib="1" flow="120.00" occupancy="1.49" speed="11.18" harmonicMeanSpeed="11.18" length="5.00" nVehEntered="1"/>
    <interval begin="30.00" end="60.00" id="od1_0" nVehContrib="7" flow="840.00" occupancy="15.80" speed="11.18" harmonicMeanSpeed="11.18" length="7.57" nVehEntered="7"/>
    <interval begin="30.00" end="60.00" id="od1_1" nVehContrib="0" flow="0.00" occupancy="0.00" speed="-1.00" harmonicMeanSpeed="-1.00" length="-1.00" nVehEntered="0"/>
    <interval begin="30.00" end="60.00" id="od1_2" nVehContrib="2" flow="240.00" occupancy="3.28" speed="11.18" harmonicMeanSpeed="11.18" length="5.50" nVehEntered="2"/>
    <interval begin="30.00" end="60.00" id="od2_0" nVehContrib="3" flow="360.00" occupancy="5.96" speed="11.18" harmonicMeanSpeed="11.18" length="6.67" nVehEntered="3"/>
    <interval begin="30.00" end="60.00" id="od2_1" nVehContrib="0" flow="0.00" occupancy="0.00" speed="-1.00" harmonicMeanSpeed="-1.00" length="-1.00" nVehEntered="0"/>
    <interval begin="30.00" end="60.00" id="od2_2" nVehContrib="3" flow="360.00" occupancy="6.26" speed="11.18" harmonicMeanSpeed="11.18" length="7.00" nVehEntered="3"/>
    <interval begin="30.00" end="60.00" id="od3_0" nVehContrib="6" flow="720.00" occupancy="14.01" speed="11.18" harmonicMeanSpeed="11.18" length="7.83" nVehEntered="6"/>
    <interval begin="30.00" end="60.00" id="od3_1" nVehContrib="0" flow="0.00" occupancy="0.00" speed="-1.00" harmonicMeanSpeed="-1.00" length="-1.00" nVehEntered="0"/>
    <interval begin="30.00" end="60.00" id="od3_2" nVehContrib="1" flow="120.00" occupancy="1.79" speed="11.18" harmonicMeanSpeed="11.18" length="6.00" nVehEntered="1"/>
    <interval begin="30.00" end="60.00" id="od4_0" nVehContrib="11" flow="1320.00" occupancy="19.98" speed="11.18" harmonicMeanSpeed="11.18" length="6.09" nVehEntered="11"/>
    <interval begin="30.00" end="60.00" id="od4_1" nVehContrib="0" flow="0.00" occupancy="0.00" speed="-1.00" harmonicMeanSpeed="-1.00" length="-1.00" nVehEntered="0"/>
    <interval begin="30.00" end="60.00" id="od4_2" nVehContrib="1" flow="120.00" occupancy="1.49" speed="11.18" harmonicMeanSpeed="11.18" length="5.00" nVehEntered="1"/>
    <interval begin="30.00" end="60.00" id="ood1_0" nVehContrib="7" flow="840.00" occupancy="15.80" speed="11.18" harmonicMeanSpeed="11.18" length="7.57" nVehEntered="7"/>
    <interval begin="30.00" end="60.00" id="ood1_1" nVehContrib="0" flow="0.00" occupancy="0.00" speed="-1.00" harmonicMeanSpeed="-1.00" length="-1.00" nVehEntered="0"/>
    <interval begin="30.00" end="60.00" id="ood1_2" nVehContrib="2" flow="240.00" occupancy="3.28" speed="11.18" harmonicMeanSpeed="11.18" length="5.50" nVehEntered="2"/>
    <interval begin="30.00" end="60.00" id="ood2_0" nVehContrib="3" flow="360.00" occupancy="4.59" speed="11.18" harmonicMeanSpeed="11.18" length="6.67" nVehEntered="2"/>
    <interval begin="30.00" end="60.00" id="ood2_1" nVehContrib="0" flow="0.00" occupancy="0.00" speed="-1.00" harmonicMeanSpeed="-1.00" length="-1.00" nVehEntered="0"/>
    <interval begin="30.00" end="60.00" id="ood2_2" nVehContrib="3" flow="360.00" occupancy="6.26" speed="11.18" harmonicMeanSpeed="11.18" length="7.00" nVehEntered="3"/>
    <interval begin="30.00" end="60.00" id="ood3_0" nVehContrib="6" flow="720.00" occupancy="14.01" speed="11.18" harmonicMeanSpeed="11.18" length="7.83" nVehEntered="6"/>
    <interval begin="30.00" end="60.00" id="ood3_1" nVehContrib="0" flow="0.00" occupancy="0.00" speed="-1.00" harmonicMeanSpeed="-1.00" length="-1.00" nVehEntered="0"/>
    <interval begin="30.00" end="60.00" id="ood3_2" nVehContrib="1" flow="120.00" occupancy="1.79" speed="11.18" harmonicMeanSpeed="11.18" length="6.00" nVehEntered="1"/>
    <interval begin="30.00" end="60.00" id="ood4_0" nVehContrib="12" flow="1440.00" occupancy="22.06" speed="11.18" harmonicMeanSpeed="11.18" length="6.17" nVehEntered="12"/>
    <interval begin="30.00" end="60.00" id="ood4_1" nVehContrib="0" flow="0.00" occupancy="0.00" speed="-1.00" harmonicMeanSpeed="-1.00" length="-1.00" nVehEntered="0"/>
    <interval begin="30.00" end="60.00" id="ood4_2" nVehContrib="1" flow="120.00" occupancy="1.49" speed="11.18" harmonicMeanSpeed="11.18" length="5.00" nVehEntered="1"/>
    <interval begin="30.00" end="60.00" id="oood1_0" nVehContrib="7" flow="840.00" occupancy="15.78" speed="11.18" harmonicMeanSpeed="11.18" length="7.57" nVehEntered="6"/>
    <interval begin="30.00" end="60.00" id="oood1_1" nVehContrib="0" flow="0.00" occupancy="0.00" speed="-1.00" harmonicMeanSpeed="-1.00" length="-1.00" nVehEntered="0"/>
    <interval begin="30.00" end="60.00" id="oood1_2" nVehContrib="2" flow="240.00" occupancy="3.28" speed="11.18" harmonicMeanSpeed="11.18" length="5.50" nVehEntered="2"/>
    <interval begin="30.00" end="60.00" id="oood2_0" nVehContrib="3" flow="360.00" occupancy="6.28" speed="11.18" harmonicMeanSpeed="11.18" length="7.00" nVehEntered="4"/>
    <interval begin="30.00" end="60.00" id="oood2_1" nVehContrib="0" flow="0.00" occupancy="0.00" speed="-1.00" harmonicMeanSpeed="-1.00" length="-1.00" nVehEntered="0"/>
    <interval begin="30.00" end="60.00" id="oood2_2" nVehContrib="3" flow="360.00" occupancy="6.26" speed="11.18" harmonicMeanSpeed="11.18" length="7.00" nVehEntered="3"/>
    <interval begin="30.00" end="60.00" id="oood3_0" nVehContrib="6" flow="720.00" occupancy="14.04" speed="11.16" harmonicMeanSpeed="11.16" length="7.83" nVehEntered="6"/>
    <interval begin="30.00" end="60.00" id="oood3_1" nVehContrib="0" flow="0.00" occupancy="0.00" speed="-1.00" harmonicMeanSpeed="-1.00" length="-1.00" nVehEntered="0"/>
    <interval begin="30.00" end="60.00" id="oood3_2" nVehContrib="1" flow="120.00" occupancy="1.79" speed="11.18" harmonicMeanSpeed="11.18" length="6.00" nVehEntered="1"/>
    <interval begin="30.00" end="60.00" id="oood4_0" nVehContrib="10" flow="1200.00" occupancy="18.19" speed="11.18" harmonicMeanSpeed="11.18" length="6.10" nVehEntered="10"/>
    <interval begin="30.00" end="60.00" id="oood4_1" nVehContrib="0" flow="0.00" occupancy="0.00" speed="-1.00" harmonicMeanSpeed="-1.00" length="-1.00" nVehEntered="0"/>
    <interval begin="30.00" end="60.00" id="oood4_2" nVehContrib="1" flow="120.00" occupancy="1.49" speed="11.18" harmonicMeanSpeed="11.18" length="5.00" nVehEntered="1"/>
    <interval begin="30.00" end="60.00" id="ooood1_0" nVehContrib="2" flow="240.00" occupancy="1.20" speed="44.32" harmonicMeanSpeed="44.32" length="8.00" nVehEntered="2"/>
    <interval begin="30.00" end="60.00" id="ooood1_1" nVehContrib="2" flow="240.00" occupancy="1.20" speed="36.01" harmonicMeanSpeed="34.09" length="6.50" nVehEntered="2"/>
    <interval begin="30.00" end="60.00" id="ooood1_2" nVehContrib="2" flow="240.00" occupancy="1.20" speed="33.24" harmonicMeanSpeed="33.24" length="6.00" nVehEntered="2"/>
    <interval begin="30.00" end="60.00" id="ooood2_0" nVehContrib="3" flow="360.00" occupancy="1.81" speed="40.63" harmonicMeanSpeed="39.51" length="7.33" nVehEntered="3"/>
    <interval begin="30.00" end="60.00" id="ooood2_1" nVehContrib="1" flow="120.00" occupancy="0.60" speed="44.32" harmonicMeanSpeed="44.32" length="8.00" nVehEntered="1"/>
    <interval begin="30.00" end="60.00" id="ooood2_2" nVehContrib="2" flow="240.00" occupancy="1.20" speed="36.01" harmonicMeanSpeed="34.09" length="6.50" nVehEntered="2"/>
    <interval begin="30.00" end="60.00" id="ooood3_0" nVehContrib="2" flow="240.00" occupancy="1.20" speed="38.78" harmonicMeanSpeed="37.99" length="7.00" nVehEntered="2"/>
    <interval begin="30.00" end="60.00" id="ooood3_1" nVehContrib="0" flow="0.00" occupancy="0.00" speed="-1.00" harmonicMeanSpeed="-1.00" length="-1.00" nVehEntered="0"/>
    <interval begin="30.00" end="60.00" id="ooood3_2" nVehContrib="4" flow="480.00" occupancy="2.41" speed="41.55" harmonicMeanSpeed="40.61" length="7.50" nVehEntered="4"/>
    <interval begin="30.00" end="60.00" id="ooood4_0" nVehContrib="3" flow="360.00" occupancy="1.81" speed="35.09" harmonicMeanSpeed="34.22" length="6.33" nVehEntered="3"/>
    <interval begin="30.00" end="60.00" id="ooood4_1" nVehContrib="4" flow="480.00" occupancy="2.41" speed="31.86" harmonicMeanSpeed="31.23" length="5.75" nVehEntered="4"/>
    <interval begin="30.00" end="60.00" id="ooood4_2" nVehContrib="2" flow="240.00" occupancy="1.20" speed="30.47" harmonicMeanSpeed="30.22" length="5.50" nVehEntered="2"/>
    <interval begin="60.00" end="90.00" id="d1_0" nVehContrib="2" flow="240.00" occupancy="4.77" speed="11.18" harmonicMeanSpeed="11.18" length="8.00" nVehEntered="2"/>
    <interval begin="60.00" end="90.00" id="d1_1" nVehContrib="0" flow="0.00" occupancy="0.00" speed="-1.00" harmonicMeanSpeed="-1.00" length="-1.00" nVehEntered="0"/>
    <interval begin="60.00" end="90.00" id="d1_2" nVehContrib="3" flow="360.00" occupancy="6.56" speed="11.18" harmonicMeanSpeed="11.18" length="7.33" nVehEntered="3"/>
    <interval begin="60.00" end="90.00" id="d2_0" nVehContrib="6" flow="720.00" occupancy="12.43" speed="11.18" harmonicMeanSpeed="11.18" length="7.17" nVehEntered="5"/>
    <interval begin="60.00" end="90.00" id="d2_1" nVehContrib="0" flow="0.00" occupancy="0.00" speed="-1.00" harmonicMeanSpeed="-1.00" length="-1.00" nVehEntered="0"/>
    <interval begin="60.00" end="90.00" id="d2_2" nVehContrib="0" flow="0.00" occupancy="0.00" speed="-1.00" harmonicMeanSpeed="-1.00" length="-1.00" nVehEntered="0"/>
    <interval begin="60.00" end="90.00" id="d3_0" nVehContrib="5" flow="600.00" occupancy="10.44" speed="11.18" harmonicMeanSpeed="11.18" length="7.00" nVehEntered="5"/>
    <interval begin="60.00" end="90.00" id="d3_1" nVehContrib="0" flow="0.00" occupancy="0.00" speed="-1.00" harmonicMeanSpeed="-1.00" length="-1.00" nVehEntered="0"/>
    <interval begin="60.00" end="90.00" id="d3_2" nVehContrib="1" flow="120.00" occupancy="2.68" speed="11.18" harmonicMeanSpeed="11.18" length="9.00" nVehEntered="1"/>
    <interval begin="60.00" end="90.00" id="d4_0" nVehContrib="2" flow="240.00" occupancy="4.17" speed="11.18" harmonicMeanSpeed="11.18" length="7.00" nVehEntered="2"/>
    <interval begin="60.00" end="90.00" id="d4_1" nVehContrib="0" flow="0.00" occupancy="0.00" speed="-1.00" harmonicMeanSpeed="-1.00" length="-1.00" nVehEntered="0"/>
    <interval begin="60.00" end="90.00" id="d4_2" nVehContrib="0" flow="0.00" occupancy="0.00" speed="-1.00" harmonicMeanSpeed="-1.00" length="-1.00" nVehEntered="0"/>
    <interval begin="60.00" end="90.00" id="od1_0" nVehContrib="2" flow="240.00" occupancy="5.95" speed="11.18" harmonicMeanSpeed="11.18" length="8.00" nVehEntered="3"/>
    <interval begin="60.00" end="90.00" id="od1_1" nVehContrib="0" flow="0.00" occupancy="0.00" speed="-1.00" harmonicMeanSpeed="-1.00" length="-1.00" nVehEntered="0"/>
    <interval begin="60.00" end="90.00" id="od1_2" nVehContrib="3" flow="360.00" occupancy="6.56" speed="11.18" harmonicMeanSpeed="11.18" length="7.33" nVehEntered="3"/>
    <interval begin="60.00" end="90.00" id="od2_0" nVehContrib="5" flow="600.00" occupancy="10.73" speed="11.18" harmonicMeanSpeed="11.18" length="7.20" nVehEntered="5"/>
    <interval begin="60.00" end="90.00" id="od2_1" nVehContrib="0" flow="0.00" occupancy="0.00" speed="-1.00" harmonicMeanSpeed="-1.00" length="-1.00" nVehEntered="0"/>
    <interval begin="60.00" end="90.00" id="od2_2" nVehContrib="0" flow="0.00" occupancy="0.00" speed="-1.00" harmonicMeanSpeed="-1.00" length="-1.00" nVehEntered="0"/>
    <interval begin="60.00" end="90.00" id="od3_0" nVehContrib="4" flow="480.00" occupancy="7.75" speed="11.18" harmonicMeanSpeed="11.18" length="6.50" nVehEntered="4"/>
    <interval begin="60.00" end="90.00" id="od3_1" nVehContrib="0" flow="0.00" occupancy="0.00" speed="-1.00" harmonicMeanSpeed="-1.00" length="-1.00" nVehEntered="0"/>
    <interval begin="60.00" end="90.00" id="od3_2" nVehContrib="1" flow="120.00" occupancy="2.68" speed="11.18" harmonicMeanSpeed="11.18" length="9.00" nVehEntered="1"/>
    <interval begin="60.00" end="90.00" id="od4_0" nVehContrib="1" flow="120.00" occupancy="3.27" speed="11.18" harmonicMeanSpeed="11.18" length="7.00" nVehEntered="2"/>
    <interval begin="60.00" end="90.00" id="od4_1" nVehContrib="0" flow="0.00" occupancy="0.00" speed="-1.00" harmonicMeanSpeed="-1.00" length="-1.00" nVehEntered="0"/>
    <interval begin="60.00" end="90.00" id="od4_2" nVehContrib="0" flow="0.00" occupancy="0.00" speed="-1.00" harmonicMeanSpeed="-1.00" length="-1.00" nVehEntered="0"/>
    <interval begin="60.00" end="90.00" id="ood1_0" nVehContrib="3" flow="360.00" occupancy="6.86" speed="11.18" harmonicMeanSpeed="11.18" length="7.67" nVehEntered="3"/>
    <interval begin="60.00" end="90.00" id="ood1_1" nVehContrib="0" flow="0.00" occupancy="0.00" speed="-1.00" harmonicMeanSpeed="-1.00" length="-1.00" nVehEntered="0"/>
    <interval begin="60.00" end="90.00" id="ood1_2" nVehContrib="3" flow="360.00" occupancy="6.56" speed="11.18" harmonicMeanSpeed="11.18" length="7.33" nVehEntered="3"/>
    <interval begin="60.00" end="90.00" id="ood2_0" nVehContrib="5" flow="600.00" occupancy="10.73" speed="11.18" harmonicMeanSpeed="11.18" length="7.20" nVehEntered="5"/>
    <interval begin="60.00" end="90.00" id="ood2_1" nVehContrib="0" flow="0.00" occupancy="0.00" speed="-1.00" harmonicMeanSpeed="-1.00" length="-1.00" nVehEntered="0"/>
    <interval begin="60.00" end="90.00" id="ood2_2" nVehContrib="0" flow="0.00" occupancy="0.00" speed="-1.00" harmonicMeanSpeed="-1.00" length="-1.00" nVehEntered="0"/>
    <interval begin="60.00" end="90.00" id="ood3_0" nVehContrib="4" flow="480.00" occupancy="10.02" speed="11.18" harmonicMeanSpeed="11.18" length="6.50" nVehEntered="5"/>
    <interval begin="60.00" end="90.00" id="ood3_1" nVehContrib="0" flow="0.00" occupancy="0.00" speed="-1.00" harmonicMeanSpeed="-1.00" length="-1.00" nVehEntered="0"/>
    <interval begin="60.00" end="90.00" id="ood3_2" nVehContrib="1" flow="120.00" occupancy="2.68" speed="11.18" harmonicMeanSpeed="11.18" length="9.00" nVehEntered="1"/>
    <interval begin="60.00" end="90.00" id="ood4_0" nVehContrib="1" flow="120.00" occupancy="2.09" speed="11.18" harmonicMeanSpeed="11.18" length="7.00" nVehEntered="1"/>
    <interval begin="60.00" end="90.00" id="ood4_1" nVehContrib="0" flow="0.00" occupancy="0.00" speed="-1.00" harmonicMeanSpeed="-1.00" length="-1.00" nVehEntered="0"/>
    <interval begin="60.00" end="90.00" id="ood4_2" nVehContrib="1" flow="120.00" occupancy="1.79" speed="11.18" harmonicMeanSpeed="11.18" length="6.00" nVehEntered="1"/>
    <interval begin="60.00" end="90.00" id="oood1_0" nVehContrib="4" flow="480.00" occupancy="9.24" speed="11.18" harmonicMeanSpeed="11.18" length="7.75" nVehEntered="4"/>
    <interval begin="60.00" end="90.00" id="oood1_1" nVehContrib="0" flow="0.00" occupancy="0.00" speed="-1.00" harmonicMeanSpeed="-1.00" length="-1.00" nVehEntered="0"/>
    <interval begin="60.00" end="90.00" id="oood1_2" nVehContrib="3" flow="360.00" occupancy="6.56" speed="11.18" harmonicMeanSpeed="11.18" length="7.33" nVehEntered="3"/>
    <interval begin="60.00" end="90.00" id="oood2_0" nVehContrib="4" flow="480.00" occupancy="8.93" speed="11.18" harmonicMeanSpeed="11.18" length="7.50" nVehEntered="3"/>
    <interval begin="60.00" end="90.00" id="oood2_1" nVehContrib="0" flow="0.00" occupancy="0.00" speed="-1.00" harmonicMeanSpeed="-1.00" length="-1.00" nVehEntered="0"/>
    <interval begin="60.00" end="90.00" id="oood2_2" nVehContrib="1" flow="120.00" occupancy="2.39" speed="11.18" harmonicMeanSpeed="11.18" length="8.00" nVehEntered="1"/>
    <interval begin="60.00" end="90.00" id="oood3_0" nVehContrib="5" flow="600.00" occupancy="10.14" speed="11.18" harmonicMeanSpeed="11.18" length="6.80" nVehEntered="5"/>
    <interval begin="60.00" end="90.00" id="oood3_1" nVehContrib="0" flow="0.00" occupancy="0.00" speed="-1.00" harmonicMeanSpeed="-1.00" length="-1.00" nVehEntered="0"/>
    <interval begin="60.00" end="90.00" id="oood3_2" nVehContrib="1" flow="120.00" occupancy="2.68" speed="11.18" harmonicMeanSpeed="11.18" length="9.00" nVehEntered="1"/>
    <interval begin="60.00" end="90.00" id="oood4_0" nVehContrib="1" flow="120.00" occupancy="2.09" speed="11.18" harmonicMeanSpeed="11.18" length="7.00" nVehEntered="1"/>
    <interval begin="60.00" end="90.00" id="oood4_1" nVehContrib="0" flow="0.00" occupancy="0.00" speed="-1.00" harmonicMeanSpeed="-1.00" length="-1.00" nVehEntered="0"/>
    <interval begin="60.00" end="90.00" id="oood4_2" nVehContrib="2" flow="240.00" occupancy="3.28" speed="11.18" harmonicMeanSpeed="11.18" length="5.50" nVehEntered="2"/>
    <interval begin="60.00" end="90.00" id="ooood1_0" nVehContrib="5" flow="600.00" occupancy="3.01" speed="41.00" harmonicMeanSpeed="39.13" length="7.40" nVehEntered="5"/>