<?xml version="1.0" encoding="UTF-8"?>

<!-- generated on 03/23/20 03:48:31 by Eclipse SUMO GUI Version 1.3.1
<configuration xmlns:xsi="http://www.w3.org/2001/XMLSchema-instance" xsi:noNamespaceSchemaLocation="http://sumo.dlr.de/xsd/sumoConfiguration.xsd">

    <input>
        <net-file value="data/lane3.net.xml"/>
        <route-files value="data/icacc+.rou.xml"/>
        <additional-files value="data/icacc+.det.xml"/>
    </input>

    <output>
        <tripinfo-output value="tripinfo.xml"/>
    </output>

    <time>
        <begin value="0"/>
        <step-length value="0.1"/>
    </time>

    <processing>
        <collision.mingap-factor value="0"/>
    </processing>

    <report>
        <verbose value="true"/>
        <no-step-log value="true"/>
    </report>

    <traci_server>
        <remote-port value="1418"/>
    </traci_server>

    <gui_only>
        <quit-on-end value="true"/>
        <start value="true"/>
        <tracker-interval value="0.1"/>
    </gui_only>

</configuration>
-->

<detector xmlns:xsi="http://www.w3.org/2001/XMLSchema-instance" xsi:noNamespaceSchemaLocation="http://sumo.dlr.de/xsd/det_e1_file.xsd">
    <interval begin="0.00" end="30.00" id="d1_0" nVehContrib="2" flow="240.00" occupancy="3.93" speed="11.18" harmonicMeanSpeed="11.18" length="6.00" nVehEntered="3"/>
    <interval begin="0.00" end="30.00" id="d1_1" nVehContrib="0" flow="0.00" occupancy="0.00" speed="-1.00" harmonicMeanSpeed="-1.00" length="-1.00" nVehEntered="0"/>
    <interval begin="0.00" end="30.00" id="d1_2" nVehContrib="5" flow="600.00" occupancy="11.33" speed="11.18" harmonicMeanSpeed="11.18" length="7.60" nVehEntered="5"/>
    <interval begin="0.00" end="30.00" id="d2_0" nVehContrib="6" flow="720.00" occupancy="12.82" speed="11.18" harmonicMeanSpeed="11.18" length="7.17" nVehEntered="6"/>
    <interval begin="0.00" end="30.00" id="d2_1" nVehContrib="0" flow="0.00" occupancy="0.00" speed="-1.00" harmonicMeanSpeed="-1.00" length="-1.00" nVehEntered="0"/>
    <interval begin="0.00" end="30.00" id="d2_2" nVehContrib="5" flow="600.00" occupancy="10.49" speed="11.18" harmonicMeanSpeed="11.18" length="6.60" nVehEntered="6"/>
    <interval begin="0.00" end="30.00" id="d3_0" nVehContrib="2" flow="240.00" occupancy="4.77" speed="11.18" harmonicMeanSpeed="11.18" length="8.00" nVehEntered="2"/>
    <interval begin="0.00" end="30.00" id="d3_1" nVehContrib="0" flow="0.00" occupancy="0.00" speed="-1.00" harmonicMeanSpeed="-1.00" length="-1.00" nVehEntered="0"/>
    <interval begin="0.00" end="30.00" id="d3_2" nVehContrib="7" flow="840.00" occupancy="18.95" speed="10.22" harmonicMeanSpeed="9.33" length="7.29" nVehEntered="7"/>
    <interval begin="0.00" end="30.00" id="d4_0" nVehContrib="3" flow="360.00" occupancy="5.66" speed="11.18" harmonicMeanSpeed="11.18" length="6.33" nVehEntered="3"/>
    <interval begin="0.00" end="30.00" id="d4_1" nVehContrib="0" flow="0.00" occupancy="0.00" speed="-1.00" harmonicMeanSpeed="-1.00" length="-1.00" nVehEntered="0"/>
    <interval begin="0.00" end="30.00" id="d4_2" nVehContrib="4" flow="480.00" occupancy="8.94" speed="11.18" harmonicMeanSpeed="11.18" length="7.50" nVehEntered="4"/>
    <interval begin="0.00" end="30.00" id="od1_0" nVehContrib="3" flow="360.00" occupancy="5.96" speed="11.18" harmonicMeanSpeed="11.18" length="6.67" nVehEntered="3"/>
    <interval begin="0.00" end="30.00" id="od1_1" nVehContrib="0" flow="0.00" occupancy="0.00" speed="-1.00" harmonicMeanSpeed="-1.00" length="-1.00" nVehEntered="0"/>
    <interval begin="0.00" end="30.00" id="od1_2" nVehContrib="5" flow="600.00" occupancy="11.33" speed="11.18" harmonicMeanSpeed="11.18" length="7.60" nVehEntered="5"/>
    <interval begin="0.00" end="30.00" id="od2_0" nVehContrib="6" flow="720.00" occupancy="12.82" speed="11.18" harmonicMeanSpeed="11.18" length="7.17" nVehEntered="6"/>
    <interval begin="0.00" end="30.00" id="od2_1" nVehContrib="0" flow="0.00" occupancy="0.00" speed="-1.00" harmonicMeanSpeed="-1.00" length="-1.00" nVehEntered="0"/>
    <interval begin="0.00" end="30.00" id="od2_2" nVehContrib="6" flow="720.00" occupancy="13.50" speed="11.18" harmonicMeanSpeed="11.18" length="6.50" nVehEntered="7"/>
    <interval begin="0.00" end="30.00" id="od3_0" nVehContrib="3" flow="360.00" occupancy="6.26" speed="11.18" harmonicMeanSpeed="11.18" length="7.00" nVehEntered="3"/>
    <interval begin="0.00" end="30.00" id="od3_1" nVehContrib="0" flow="0.00" occupancy="0.00" speed="-1.00" harmonicMeanSpeed="-1.00" length="-1.00" nVehEntered="0"/>
    <interval begin="0.00" end="30.00" id="od3_2" nVehContrib="8" flow="960.00" occupancy="17.72" speed="11.10" harmonicMeanSpeed="11.10" length="7.38" nVehEntered="8"/>
    <interval begin="0.00" end="30.00" id="od4_0" nVehContrib="4" flow="480.00" occupancy="7.45" speed="11.18" harmonicMeanSpeed="11.18" length="6.25" nVehEntered="4"/>
    <interval begin="0.00" end="30.00" id="od4_1" nVehContrib="0" flow="0.00" occupancy="0.00" speed="-1.00" harmonicMeanSpeed="-1.00" length="-1.00" nVehEntered="0"/>
    <interval begin="0.00" end="30.00" id="od4_2" nVehContrib="4" flow="480.00" occupancy="8.94" speed="11.18" harmonicMeanSpeed="11.18" length="7.50" nVehEntered="4"/>
    <interval begin="0.00" end="30.00" id="ood1_0" nVehContrib="4" flow="480.00" occupancy="8.35" speed="11.18" harmonicMeanSpeed="11.18" length="7.00" nVehEntered="4"/>
    <interval begin="0.00" end="30.00" id="ood1_1" nVehContrib="0" flow="0.00" occupancy="0.00" speed="-1.00" harmonicMeanSpeed="-1.00" length="-1.00" nVehEntered="0"/>
    <interval begin="0.00" end="30.00" id="ood1_2" nVehContrib="5" flow="600.00" occupancy="11.82" speed="11.18" harmonicMeanSpeed="11.18" length="7.60" nVehEntered="6"/>
    <interval begin="0.00" end="30.00" id="ood2_0" nVehContrib="6" flow="720.00" occupancy="12.82" speed="11.18" harmonicMeanSpeed="11.18" length="7.17" nVehEntered="6"/>
    <interval begin="0.00" end="30.00" id="ood2_1" nVehContrib="0" flow="0.00" occupancy="0.00" speed="-1.00" harmonicMeanSpeed="-1.00" length="-1.00" nVehEntered="0"/>
    <interval begin="0.00" end="30.00" id="ood2_2" nVehContrib="7" flow="840.00" occupancy="16.26" speed="11.18" harmonicMeanSpeed="11.18" length="6.57" nVehEntered="8"/>
    <interval begin="0.00" end="30.00" id="ood3_0" nVehContrib="3" flow="360.00" occupancy="6.26" speed="11.18" harmonicMeanSpeed="11.18" length="7.00" nVehEntered="3"/>
    <interval begin="0.00" end="30.00" id="ood3_1" nVehContrib="0" flow="0.00" occupancy="0.00" speed="-1.00" harmonicMeanSpeed="-1.00" length="-1.00" nVehEntered="0"/>
    <interval begin="0.00" end="30.00" id="ood3_2" nVehContrib="9" flow="1080.00" occupancy="21.01" speed="11.18" harmonicMeanSpeed="11.18" length="7.11" nVehEntered="10"/>
    <interval begin="0.00" end="30.00" id="ood4_0" nVehContrib="5" flow="600.00" occupancy="10.14" speed="11.18" harmonicMeanSpeed="11.18" length="6.80" nVehEntered="5"/>
    <interval begin="0.00" end="30.00" id="ood4_1" nVehContrib="0" flow="0.00" occupancy="0.00" speed="-1.00" harmonicMeanSpeed="-1.00" length="-1.00" nVehEntered="0"/>
    <interval begin="0.00" end="30.00" id="ood4_2" nVehContrib="5" flow="600.00" occupancy="11.33" speed="11.18" harmonicMeanSpeed="11.18" length="7.60" nVehEntered="5"/>
    <interval begin="0.00" end="30.00" id="oood1_0" nVehContrib="5" flow="600.00" occupancy="10.15" speed="11.17" harmonicMeanSpeed="11.17" length="6.80" nVehEntered="5"/>
    <interval begin="0.00" end="30.00" id="oood1_1" nVehContrib="0" flow="0.00" occupancy="0.00" speed="-1.00" harmonicMeanSpeed="-1.00" length="-1.00" nVehEntered="0"/>
    <interval begin="0.00" end="30.00" id="oood1_2" nVehContrib="7" flow="840.00" occupancy="14.94" speed="11.15" harmonicMeanSpeed="11.15" length="7.14" nVehEntered="7"/>
    <interval begin="0.00" end="30.00" id="oood2_0" nVehContrib="6" flow="720.00" occupancy="12.86" speed="11.15" harmonicMeanSpeed="11.15" length="7.17" nVehEntered="6"/>
    <interval begin="0.00" end="30.00" id="oood2_1" nVehContrib="0" flow="0.00" occupancy="0.00" speed="-1.00" harmonicMeanSpeed="-1.00" length="-1.00" nVehEntered="0"/>
    <interval begin="0.00" end="30.00" id="oood2_2" nVehContrib="8" flow="960.00" occupancy="17.33" speed="11.18" harmonicMeanSpeed="11.18" length="6.88" nVehEntered="9"/>
    <interval begin="0.00" end="30.00" id="oood3_0" nVehContrib="4" flow="480.00" occupancy="8.97" speed="11.15" harmonicMeanSpeed="11.15" length="7.50" nVehEntered="4"/>
    <interval begin="0.00" end="30.00" id="oood3_1" nVehContrib="0" flow="0.00" occupancy="0.00" speed="-1.00" harmonicMeanSpeed="-1.00" length="-1.00" nVehEntered="0"/>
    <interval begin="0.00" end="30.00" id="oood3_2" nVehContrib="11" flow="1320.00" occupancy="23.92" speed="11.15" harmonicMeanSpeed="11.15" length="7.27" nVehEntered="11"/>
    <interval begin="0.00" end="30.00" id="oood4_0" nVehContrib="5" flow="600.00" occupancy="12.14" speed="11.16" harmonicMeanSpeed="11.16" length="6.80" nVehEntered="6"/>
    <interval begin="0.00" end="30.00" id="oood4_1" nVehContrib="0" flow="0.00" occupancy="0.00" speed="-1.00" harmonicMeanSpeed="-1.00" length="-1.00" nVehEntered="0"/>
    <interval begin="0.00" end="30.00" id="oood4_2" nVehContrib="6" flow="720.00" occupancy="12.84" speed="11.16" harmonicMeanSpeed="11.16" length="7.17" nVehEntered="6"/>
    <interval begin="0.00" end="30.00" id="ooood1_0" nVehContrib="5" flow="600.00" occupancy="6.52" speed="26.35" harmonicMeanSpeed="17.40" length="7.00" nVehEntered="6"/>
    <interval begin="0.00" end="30.00" id="ooood1_1" nVehContrib="7" flow="840.00" occupancy="4.35" speed="38.40" harmonicMeanSpeed="36.94" length="7.14" nVehEntered="9"/>
    <interval begin="0.00" end="30.00" id="ooood1_2" nVehContrib="3" flow="360.00" occupancy="5.35" speed="20.16" harmonicMeanSpeed="12.36" length="7.00" nVehEntered="5"/>
    <interval begin="0.00" end="30.00" id="ooood2_0" nVehContrib="3" flow="360.00" occupancy="7.03" speed="10.29" harmonicMeanSpeed="9.48" length="7.00" nVehEntered="10"/>
    <interval begin="0.00" end="30.00" id="ooood2_1" nVehContrib="12" flow="1440.00" occupancy="9.01" speed="35.62" harmonicMeanSpeed="31.39" length="7.08" nVehEntered="17"/>
    <interval begin="0.00" end="30.00" id="ooood2_2" nVehContrib="6" flow="720.00" occupancy="11.88" speed="14.14" harmonicMeanSpeed="12.36" length="7.17" nVehEntered="11"/>
    <interval begin="0.00" end="30.00" id="ooood3_0" nVehContrib="5" flow="600.00" occupancy="7.98" speed="24.25" harmonicMeanSpeed="13.69" length="7.40" nVehEntered="9"/>
    <interval begin="0.00" end="30.00" id="ooood3_1" nVehContrib="7" flow="840.00" occupancy="8.23" speed="33.89" harmonicMeanSpeed="16.48" length="7.00" nVehEntered="12"/>
    <interval begin="0.00" end="30.00" id="ooood3_2" nVehContrib="7" flow="840.00" occupancy="21.17" speed="13.33" harmonicMeanSpeed="9.28" length="7.86" nVehEntered="9"/>
    <interval begin="0.00" end="30.00" id="ooood4_0" nVehContrib="6" flow="720.00" occupancy="11.80" speed="19.11" harmonicMeanSpeed="11.42" length="7.17" nVehEntered="9"/>
    <interval begin="0.00" end="30.00" id="ooood4_1" nVehContrib="7" flow="840.00" occupancy="4.35" speed="34.44" harmonicMeanSpeed="33.83" length="6.43" nVehEntered="7"/>
    <interval begin="0.00" end="30.00" id="ooood4_2" nVehContrib="3" flow="360.00" occupancy="7.08" speed="10.84" harmonicMeanSpeed="10.68" length="7.67" nVehEntered="5"/>
    <interval begin="30.00" end="60.00" id="d1_0" nVehContrib="5" flow="600.00" occupancy="9.79" speed="11.18" harmonicMeanSpeed="11.18" length="6.80" nVehEntered="4"/>
    <interval begin="30.00" end="60.00" id="d1_1" nVehContrib="2" flow="240.00" occupancy="5.07" speed="11.18" harmonicMeanSpeed="11.18" length="8.50" nVehEntered="2"/>
    <interval begin="30.00" end="60.00" id="d1_2" nVehContrib="8" flow="960.00" occupancy="21.77" speed="9.62" harmonicMeanSpeed="8.03" length="7.13" nVehEntered="8"/>
    <interval begin="30.00" end="60.00" id="d2_0" nVehContrib="7" flow="840.00" occupancy="18.26" speed="10.84" harmonicMeanSpeed="10.77" length="7.43" nVehEntered="8"/>
    <interval begin="30.00" end="60.00" id="d2_1" nVehContrib="1" flow="120.00" occupancy="2.09" speed="11.18" harmonicMeanSpeed="11.18" length="7.00" nVehEntered="1"/>
    <interval begin="30.00" end="60.00" id="d2_2" nVehContrib="11" flow="1320.00" occupancy="41.47" speed="8.96" harmonicMeanSpeed="5.96" length="7.27" nVehEntered="10"/>
    <interval begin="30.00" end="60.00" id="d3_0" nVehContrib="6" flow="720.00" occupancy="11.33" speed="11.18" harmonicMeanSpeed="11.18" length="6.33" nVehEntered="6"/>
    <interval begin="30.00" end="60.00" id="d3_1" nVehContrib="3" flow="360.00" occupancy="5.96" speed="11.18" harmonicMeanSpeed="11.18" length="6.67" nVehEntered="3"/>
    <interval begin="30.00" end="60.00" id="d3_2" nVehContrib="10" flow="1200.00" occupancy="43.30" speed="8.93" harmonicMeanSpeed="5.38" length="7.40" nVehEntered="10"/>
    <interval begin="30.00" end="60.00" id="d4_0" nVehContrib="8" flow="960.00" occupancy="18.34" speed="11.18" harmonicMeanSpeed="11.18" length="6.88" nVehEntered="9"/>
    <interval begin="30.00" end="60.00" id="d4_1" nVehContrib="2" flow="240.00" occupancy="3.28" speed="11.18" harmonicMeanSpeed="11.18" length="5.50" nVehEntered="2"/>
    <interval begin="30.00" end="60.00" id="d4_2" nVehContrib="8" flow="960.00" occupancy="18.33" speed="10.14" harmonicMeanSpeed="8.53" length="6.13" nVehEntered="8"/>
    <interval begin="30.00" end="60.00" id="od1_0" nVehContrib="5" flow="600.00" occupancy="10.44" speed="11.18" harmonicMeanSpeed="11.18" length="7.00" nVehEntered="5"/>
    <interval begin="30.00" end="60.00" id="od1_1" nVehContrib="2" flow="240.00" occupancy="5.07" speed="11.18" harmonicMeanSpeed="11.18" length="8.50" nVehEntered="2"/>
    <interval begin="30.00" end="60.00" id="od1_2" nVehContrib="9" flow="1080.00" occupancy="18.49" speed="11.18" harmonicMeanSpeed="11.18" length="6.89" nVehEntered="9"/>
    <interval begin="30.00" end="60.00" id="od2_0" nVehContrib="8" flow="960.00" occupancy="19.26" speed="11.18" harmonicMeanSpeed="11.18" length="7.50" nVehEntered="9"/>
    <interval begin="30.00" end="60.00" id="od2_1" nVehContrib="1" flow="120.00" occupancy="2.09" speed="11.18" harmonicMeanSpeed="11.18" length="7.00" nVehEntered="1"/>
    <interval begin="30.00" end="60.00" id="od2_2" nVehContrib="10" flow="1200.00" occupancy="24.42" speed="9.70" harmonicMeanSpeed="9.08" length="7.40" nVehEntered="9"/>
    <interval begin="30.00" end="60.00" id="od3_0" nVehContrib="6" flow="720.00" occupancy="11.93" speed="11.18" harmonicMeanSpeed="11.18" length="6.67" nVehEntered="6"/>
    <interval begin="30.00" end="60.00" id="od3_1" nVehContrib="3" flow="360.00" occupancy="5.96" speed="11.18" harmonicMeanSpeed="11.18" length="6.67" nVehEntered="3"/>
    <interval begin="30.00" end="60.00" id="od3_2" nVehContrib="10" flow="1200.00" occupancy="31.65" speed="10.02" harmonicMeanSpeed="8.27" length="7.40" nVehEntered="10"/>
    <interval begin="30.00" end="60.00" id="od4_0" nVehContrib="8" flow="960.00" occupancy="16.70" speed="11.18" harmonicMeanSpeed="11.18" length="7.00" nVehEntered="8"/>
    <interval begin="30.00" end="60.00" id="od4_1" nVehContrib="2" flow="240.00" occupancy="3.28" speed="11.18" harmonicMeanSpeed="11.18" length="5.50" nVehEntered="2"/>
    <interval begin="30.00" end="60.00" id="od4_2" nVehContrib="9" flow="1080.00" occupancy="17.29" speed="11.18" harmonicMeanSpeed="11.18" length="6.44" nVehEntered="9"/>
    <interval begin="30.00" end="60.00" id="ood1_0" nVehContrib="4" flow="480.00" occupancy="8.05" speed="11.18" harmonicMeanSpeed="11.18" length="6.75" nVehEntered="4"/>
    <interval begin="30.00" end="60.00" id="ood1_1" nVehContrib="2" flow="240.00" occupancy="5.07" speed="11.18" harmonicMeanSpeed="11.18" length="8.50" nVehEntered="2"/>
    <interval begin="30.00" end="60.00" id="ood1_2" nVehContrib="10" flow="1200.00" occupancy="19.48" speed="11.18" harmonicMeanSpeed="11.18" length="6.70" nVehEntered="9"/>
    <interval begin="30.00" end="60.00" id="ood2_0" nVehContrib="10" flow="1200.00" occupancy="22.36" speed="11.18" harmonicMeanSpeed="11.18" length="7.50" nVehEntered="10"/>
    <interval begin="30.00" end="60.00" id="ood2_1" nVehContrib="1" flow="120.00" occupancy="2.09" speed="11.18" harmonicMeanSpeed="11.18" length="7.00" nVehEntered="1"/>
    <interval begin="30.00" end="60.00" id="ood2_2" nVehContrib="9" flow="1080.00" occupancy="20.83" speed="10.57" harmonicMeanSpeed="10.27" length="7.44" nVehEntered="9"/>
    <interval begin="30.00" end="60.00" id="ood3_0" nVehContrib="7" flow="840.00" occupancy="14.31" speed="11.18" harmonicMeanSpeed="11.18" length="6.86" nVehEntered="7"/>
    <interval begin="30.00" end="60.00" id="ood3_1" nVehContrib="3" flow="360.00" occupancy="5.96" speed="11.18" harmonicMeanSpeed="11.18" length="6.67" nVehEntered="3"/>
    <interval begin="30.00" end="60.00" id="ood3_2" nVehContrib="10" flow="1200.00" occupancy="20.25" speed="11.28" harmonicMeanSpeed="11.10" length="7.40" nVehEntered="9"/>
    <interval begin="30.00" end="60.00" id="ood4_0" nVehContrib="8" flow="960.00" occupancy="16.70" speed="11.18" harmonicMeanSpeed="11.18" length="7.00" nVehEntered="8"/>
    <interval begin="30.00" end="60.00" id="ood4_1" nVehContrib="2" flow="240.00" occupancy="3.28" speed="11.18" harmonicMeanSpeed="11.18" length="5.50" nVehEntered="2"/>
    <interval begin="30.00" end="60.00" id="ood4_2" nVehContrib="8" flow="960.00" occupancy="14.91" speed="11.18" harmonicMeanSpeed="11.18" length="6.25" nVehEntered="8"/>
    <interval begin="30.00" end="60.00" id="oood1_0" nVehContrib="3" flow="360.00" occupancy="6.28" speed="11.16" harmonicMeanSpeed="11.16" length="7.00" nVehEntered="3"/>
    <interval begin="30.00" end="60.00" id="oood1_1" nVehContrib="2" flow="240.00" occupancy="5.08" speed="11.16" harmonicMeanSpeed="11.16" length="8.50" nVehEntered="2"/>
    <interval begin="30.00" end="60.00" id="oood1_2" nVehContrib="9" flow="1080.00" occupancy="19.12" speed="11.16" harmonicMeanSpeed="11.16" length="7.11" nVehEntered="9"/>
    <interval begin="30.00" end="60.00" id="oood2_0" nVehContrib="11" flow="1320.00" occupancy="24.20" speed="11.15" harmonicMeanSpeed="11.15" length="7.36" nVehEntered="11"/>
    <interval begin="30.00" end="60.00" id="oood2_1" nVehContrib="1" flow="120.00" occupancy="2.09" speed="11.18" harmonicMeanSpeed="11.18" length="7.00" nVehEntered="1"/>
    <interval begin="30.00" end="60.00" id="oood2_2" nVehContrib="9" flow="1080.00" occupancy="21.03" speed="11.05" harmonicMeanSpeed="11.04" length="7.44" nVehEntered="9"/>
    <interval begin="30.00" end="60.00" id="oood3_0" nVehContrib="6" flow="720.00" occupancy="13.01" speed="11.17" harmonicMeanSpeed="11.17" length="6.50" nVehEntered="7"/>
    <interval begin="30.00" end="60.00" id="oood3_1" nVehContrib="3" flow="360.00" occupancy="5.97" speed="11.16" harmonicMeanSpeed="11.16" length="6.67" nVehEntered="3"/>
    <interval begin="30.00" end="60.00" id="oood3_2" nVehContrib="9" flow="1080.00" occupancy="18.80" speed="11.19" harmonicMeanSpeed="11.17" length="7.00" nVehEntered="9"/>
    <interval begin="30.00" end="60.00" id="oood4_0" nVehContrib="9" flow="1080.00" occupancy="17.14" speed="11.15" harmonicMeanSpeed="11.15" length="7.11" nVehEntered="8"/>
    <interval begin="30.00" end="60.00" id="oood4_1" nVehContrib="2" flow="240.00" occupancy="3.28" speed="11.17" harmonicMeanSpeed="11.17" length="5.50" nVehEntered="2"/>
    <interval begin="30.00" end="60.00" id="oood4_2" nVehContrib="7" flow="840.00" occupancy="13.43" speed="11.17" harmonicMeanSpeed="11.17" length="6.43" nVehEntered="7"/>
    <interval begin="30.00" end="60.00" id="ooood1_0" nVehContrib="6" flow="720.00" occupancy="12.61" speed="10.62" harmonicMeanSpeed="10.27" length="6.50" nVehEntered="10"/>
    <interval begin="30.00" end="60.00" id="ooood1_1" nVehContrib="2" flow="240.00" occupancy="2.99" speed="29.34" harmonicMeanSpeed="18.26" length="8.50" nVehEntered="12"/>
    <interval begin="30.00" end="60.00" id="ooood1_2" nVehContrib="9" flow="1080.00" occupancy="20.24" speed="11.00" harmonicMeanSpeed="10.55" length="7.44" nVehEntered="12"/>
    <interval begin="30.00" end="60.00" id="ooood2_0" nVehContrib="5" flow="600.00" occupancy="16.89" speed="8.68" harmonicMeanSpeed="6.44" length="7.00" nVehEntered="7"/>
    <interval begin="30.00" end="60.00" id="ooood2_1" nVehContrib="7" flow="840.00" occupancy="14.00" speed="27.20" harmonicMeanSpeed="13.63" length="7.86" nVehEntered="15"/>
    <interval begin="30.00" end="60.00" id="ooood2_2" nVehContrib="7" flow="840.00" occupancy="15.51" speed="12.62" harmonicMeanSpeed="11.45" length="7.29" nVehEntered="13"/>
    <interval begin="30.00" end="60.00" id="ooood3_0" nVehContrib="7" flow="840.00" occupancy="15.89" speed="10.09" harmonicMeanSpeed="10.01" length="6.86" nVehEntered="10"/>
    <interval begin="30.00" end="60.00" id="ooood3_1" nVehContrib="5" flow="600.00" occupancy="8.68" speed="17.23" harmonicMeanSpeed="12.05" length="6.20" nVehEntered="14"/>
    <interval begin="30.00" end="60.00" id="ooood3_2" nVehContrib="8" flow="960.00" occupancy="16.93" speed="10.44" harmonicMeanSpeed="9.45" length="6.88" nVehEntered="9"/>
    <interval begin="30.00" end="60.00" id="ooood4_0" nVehContrib="6" flow="720.00" occupancy="13.33" speed="10.32" harmonicMeanSpeed="9.87" length="6.83" nVehEntered="10"/>
    <interval begin="30.00" end="60.00" id="ooood4_1" nVehContrib="3" flow="360.00" occupancy="10.96" speed="14.00" harmonicMeanSpeed="6.36" length="6.33" nVehEntered="12"/>
    <interval begin="30.00" end="60.00" id="ooood4_2" nVehContrib="8" flow="960.00" occupancy="17.09" speed="10.05" harmonicMeanSpeed="9.57" length="6.38" nVehEntered="10"/>
    <interval begin="60.00" end="90.00" id="d1_0" nVehContrib="7" flow="840.00" occupancy="17.66" speed="10.69" harmonicMeanSpeed="10.51" length="7.57" nVehEntered="8"/>
    <interval begin="60.00" end="90.00" id="d1_1" nVehContrib="0" flow="0.00" occupancy="0.00" speed="-1.00" harmonicMeanSpeed="-1.00" length="-1.00" nVehEntered="0"/>
    <interval begin="60.00" end="90.00" id="d1_2" nVehContrib="9" flow="1080.00" occupancy="39.78" speed="8.88" harmonicMeanSpeed="6.79" length="7.44" nVehEntered="10"/>
    <interval begin="60.00" end="90.00" id="d2_0" nVehContrib="7" flow="840.00" occupancy="12.62" speed="11.18" harmonicMeanSpeed="11.18" length="7.14" nVehEntered="6"/>
    <interval begin="60.00" end="90.00" id="d2_1" nVehContrib="1" flow="120.00" occupancy="4.65" speed="11.18" harmonicMeanSpeed="11.18" length="8.00" nVehEntered="2"/>
    <interval begin="60.00" end="90.00" id="d2_2" nVehContrib="8" flow="960.00" occupancy="28.31" speed="9.95" harmonicMeanSpeed="9.11" length="7.38" nVehEntered="9"/>
    <interval begin="60.00" end="90.00" id="d3_0" nVehContrib="8" flow="960.00" occupancy="16.10" speed="11.18" harmonicMeanSpeed="11.18" length="6.75" nVehEntered="8"/>
    <interval begin="60.00" end="90.00" id="d3_1" nVehContrib="1" flow="120.00" occupancy="1.79" speed="11.18" harmonicMeanSpeed="11.18" length="6.00" nVehEntered="1"/>
    <interval begin="60.00" end="90.00" id="d3_2" nVehContrib="9" flow="1080.00" occupancy="28.31" speed="9.40" harmonicMeanSpeed="7.79" length="7.44" nVehEntered="9"/>
    <interval begin="60.00" end="90.00" id="d4_0" nVehContrib="5" flow="600.00" occupancy="9.39" speed="11.18" harmonicMeanSpeed="11.18" length="7.60" nVehEntered="4"/>
    <interval begin="60.00" end="90.00" id="d4_1" nVehContrib="3" flow="360.00" occupancy="5.66" speed="11.18" harmonicMeanSpeed="11.18" length="6.33" nVehEntered="3"/>
    <interval begin="60.00" end="90.00" id="d4_2" nVehContrib="8" flow="960.00" occupancy="20.58" speed="9.88" harmonicMeanSpeed="9.04" length="6.63" nVehEntered="8"/>
    <interval begin="60.00" end="90.00" id="od1_0" nVehContrib="7" flow="840.00" occupancy="14.63" speed="11.18" harmonicMeanSpeed="11.18" length="7.00" nVehEntered="8"/>
    <interval begin="60.00" end="90.00" id="od1_1" nVehContrib="1" flow="120.00" occupancy="2.68" speed="11.18" harmonicMeanSpeed="11.18" length="9.00" nVehEntered="1"/>
    <interval begin="60.00" end="90.00" id="od1_2" nVehContrib="9" flow="1080.00" occupancy="31.95" speed="9.73" harmonicMeanSpeed="8.30" length="7.78" nVehEntered="10"/>
    <interval begin="60.00" end="90.00" id="od2_0" nVehContrib="6" flow="720.00" occupancy="11.15" speed="11.18" harmonicMeanSpeed="11.18" length="7.00" nVehEntered="5"/>
    <interval begin="60.00" end="90.00" id="od2_1" nVehContrib="2" flow="240.00" occupancy="5.07" speed="11.18" harmonicMeanSpeed="11.18" length="8.50" nVehEntered="2"/>
    <interval begin="60.00" end="90.00" id="od2_2" nVehContrib="10" flow="1200.00" occupancy="33.11" speed="9.71" harmonicMeanSpeed="7.39" length="7.60" nVehEntered="10"/>
    <interval begin="60.00" end="90.00" id="od3_0" nVehContrib="8" flow="960.00" occupancy="16.80" speed="11.18" harmonicMeanSpeed="11.18" length="6.88" nVehEntered="9"/>
    <interval begin="60.00" end="90.00" id="od3_1" nVehContrib="1" flow="120.00" occupancy="1.79" speed="11.18" harmonicMeanSpeed="11.18" length="6.00" nVehEntered="1"/>
    <interval begin="60.00" end="90.00" id="od3_2" nVehContrib="9" flow="1080.00" occupancy="32.55" speed="9.38" harmonicMeanSpeed="7.10" length="7.44" nVehEntered="9"/>
    <interval begin="60.00" end="90.00" id="od4_0" nVehContrib="4" flow="480.00" occupancy="9.24" speed="11.18" harmonicMeanSpeed="11.18" length="7.75" nVehEntered="4"/>
    <interval begin="60.00" end="90.00" id="od4_1" nVehContrib="3" flow="360.00" occupancy="5.66" speed="11.18" harmonicMeanSpeed="11.18" length="6.33" nVehEntered="3"/>
    <interval begin="60.00" end="90.00" id="od4_2" nVehContrib="8" flow="960.00" occupancy="16.19" speed="10.89" harmonicMeanSpeed="10.82" length="6.63" nVehEntered="8"/>
    <interval begin="60.00" end="90.00" id="ood1_0" nVehContrib="8" flow="960.00" occupancy="16.70" speed="11.18" harmonicMeanSpeed="11.18" length="7.00" nVehEntered="8"/>
    <interval begin="60.00" end="90.00" id="ood1_1" nVehContrib="1" flow="120.00" occupancy="2.68" speed="11.18" harmonicMeanSpeed="11.18" length="9.00" nVehEntered="1"/>
    <interval begin="60.00" end="90.00" id="ood1_2" nVehContrib="10" flow="1200.00" occupancy="34.49" speed="9.65" harmonicMeanSpeed="7.58" length="7.70" nVehEntered="11"/>
    <interval begin="60.00" end="90.00" id="ood2_0" nVehContrib="4" flow="480.00" occupancy="8.05" speed="11.18" harmonicMeanSpeed="11.18" length="6.75" nVehEntered="4"/>
    <interval begin="60.00" end="90.00" id="ood2_1" nVehContrib="3" flow="360.00" occupancy="6.56" speed="11.18" harmonicMeanSpeed="11.18" length="7.33" nVehEntered="3"/>
    <interval begin="60.00" end="90.00" id="ood2_2" nVehContrib="11" flow="1320.00" occupancy="38.21" speed="9.16" harmonicMeanSpeed="7.75" length="7.73" nVehEntered="11"/>
    <interval begin="60.00" end="90.00" id="ood3_0" nVehContrib="8" flow="960.00" occupancy="16.58" speed="11.18" harmonicMeanSpeed="11.18" length="6.88" nVehEntered="9"/>
    <interval begin="60.00" end="90.00" id="ood3_1" nVehContrib="1" flow="120.00" occupancy="1.79" speed="11.18" harmonicMeanSpeed="11.18" length="6.00" nVehEntered="1"/>
    <interval begin="60.00" end="90.00" id="ood3_2" nVehContrib="8" flow="960.00" occupancy="18.49" speed="11.18" harmonicMeanSpeed="11.18" length="7.75" nVehEntered="8"/>
    <interval begin="60.00" end="90.00" id="ood4_0" nVehContrib="3" flow="360.00" occupancy="6.56" speed="11.18" harmonicMeanSpeed="11.18" length="7.33" nVehEntered="3"/>
    <interval begin="60.00" end="90.00" id="ood4_1" nVehContrib="3" flow="360.00" occupancy="5.66" speed="11.18" harmonicMeanSpeed="11.18" length="6.33" nVehEntered="3"/>
    <interval begin="60.00" end="90.00" id="ood4_2" nVehContrib="9" flow="1080.00" occupancy="18.49" speed="11.18" harmonicMeanSpeed="11.18" length="6.89" nVehEntered="9"/>
    <interval begin="60.00" end="90.00" id="oood1_0" nVehContrib="9" flow="1080.00" occupancy="18.22" speed="11.16" harmonicMeanSpeed="11.16" length="6.78" nVehEntered="9"/>
    <interval begin="60.00" end="90.00" id="oood1_1" nVehContrib="1" flow="120.00" occupancy="2.68" speed="11.18" harmonicMeanSpeed="11.18" length="9.00" nVehEntered="1"/>
    <interval begin="60.00" end="90.00" id="oood1_2" nVehContrib="10" flow="1200.00" occupancy="25.46" speed="10.37" harmonicMeanSpeed="9.70" length="7.40" nVehEntered="10"/>
    <interval begin="60.00" end="90.00" id="oood2_0" nVehContrib="3" flow="360.00" occupancy="6.27" speed="11.17" harmonicMeanSpeed="11.17" length="7.00" nVehEntered="3"/>
    <interval begin="60.00" end="90.00" id="oood2_1" nVehContrib="3" flow="360.00" occupancy="6.58" speed="11.15" harmonicMeanSpeed="11.15" length="7.33" nVehEntered="3"/>
    <interval begin="60.00" end="90.00" id="oood2_2" nVehContrib="12" flow="1440.00" occupancy="33.21" speed="9.92" harmonicMeanSpeed="8.58" length="7.42" nVehEntered="11"/>
    <interval begin="60.00" end="90.00" id="oood3_0" nVehContrib="9" flow="1080.00" occupancy="17.45" speed="11.16" harmonicMeanSpeed="11.16" length="7.00" nVehEntered="8"/>
    <interval begin="60.00" end="90.00" id="oood3_1" nVehContrib="1" flow="120.00" occupancy="1.79" speed="11.17" harmonicMeanSpeed="11.17" length="6.00" nVehEntered="1"/>
    <interval begin="60.00" end="90.00" id="oood3_2" nVehContrib="7" flow="840.00" occupancy="18.02" speed="11.15" harmonicMeanSpeed="11.15" length="8.14" nVehEntered="8"/>
    <interval begin="60.00" end="90.00" id="oood4_0" nVehContrib="3" flow="360.00" occupancy="5.68" speed="11.16" harmonicMeanSpeed="11.16" length="6.33" nVehEntered="3"/>
    <interval begin="60.00" end="90.00" id="oood4_1" nVehContrib="3" flow="360.00" occupancy="5.68" speed="11.14" harmonicMeanSpeed="11.14" length="6.33" nVehEntered="3"/>
    <interval begin="60.00" end="90.00" id="oood4_2" nVehContrib="10" flow="1200.00" occupancy="20.01" speed="11.16" harmonicMeanSpeed="11.16" length="6.70" nVehEntered="10"/>