<?xml version="1.0" encoding="UTF-8"?>

<!-- generated on 04/21/21 21:47:26 by Eclipse SUMO GUI Version 1.8.0
<configuration xmlns:xsi="http://www.w3.org/2001/XMLSchema-instance" xsi:noNamespaceSchemaLocation="http://sumo.dlr.de/xsd/sumoConfiguration.xsd">

    <input>
        <net-file value="data/lane3.net.xml"/>
        <route-files value="data/icacc+.rou.xml"/>
        <additional-files value="data/icacc+.det.xml"/>
    </input>

    <output>
        <tripinfo-output value="tripinfo.xml"/>
    </output>

    <time>
        <begin value="0"/>
        <step-length value="0.1"/>
    </time>

    <processing>
        <collision.mingap-factor value="0"/>
        <time-to-teleport value="-1"/>
        <lanechange.duration value="0.5"/>
    </processing>

    <report>
        <verbose value="true"/>
        <no-step-log value="true"/>
    </report>

    <traci_server>
        <remote-port value="2757"/>
    </traci_server>

    <gui_only>
        <start value="true"/>
        <tracker-interval value="0.1"/>
    </gui_only>

</configuration>
-->

<detector xmlns:xsi="http://www.w3.org/2001/XMLSchema-instance" xsi:noNamespaceSchemaLocation="http://sumo.dlr.de/xsd/det_e1_file.xsd">
    <interval begin="0.00" end="30.00" id="d1_0" nVehContrib="0" flow="0.00" occupancy="0.00" speed="-1.00" harmonicMeanSpeed="-1.00" length="-1.00" nVehEntered="0"/>
    <interval begin="0.00" end="30.00" id="d1_1" nVehContrib="0" flow="0.00" occupancy="0.00" speed="-1.00" harmonicMeanSpeed="-1.00" length="-1.00" nVehEntered="0"/>
    <interval begin="0.00" end="30.00" id="d1_2" nVehContrib="1" flow="120.00" occupancy="2.68" speed="11.18" harmonicMeanSpeed="11.18" length="9.00" nVehEntered="1"/>
    <interval begin="0.00" end="30.00" id="d2_0" nVehContrib="1" flow="120.00" occupancy="1.79" speed="11.18" harmonicMeanSpeed="11.18" length="6.00" nVehEntered="1"/>
    <interval begin="0.00" end="30.00" id="d2_1" nVehContrib="0" flow="0.00" occupancy="0.00" speed="-1.00" harmonicMeanSpeed="-1.00" length="-1.00" nVehEntered="0"/>
    <interval begin="0.00" end="30.00" id="d2_2" nVehContrib="3" flow="360.00" occupancy="6.26" speed="11.18" harmonicMeanSpeed="11.18" length="7.00" nVehEntered="3"/>
    <interval begin="0.00" end="30.00" id="d3_0" nVehContrib="1" flow="120.00" occupancy="2.39" speed="11.18" harmonicMeanSpeed="11.18" length="8.00" nVehEntered="1"/>
    <interval begin="0.00" end="30.00" id="d3_1" nVehContrib="0" flow="0.00" occupancy="0.00" speed="-1.00" harmonicMeanSpeed="-1.00" length="-1.00" nVehEntered="0"/>
    <interval begin="0.00" end="30.00" id="d3_2" nVehContrib="1" flow="120.00" occupancy="2.09" speed="11.18" harmonicMeanSpeed="11.18" length="7.00" nVehEntered="1"/>
    <interval begin="0.00" end="30.00" id="d4_0" nVehContrib="0" flow="0.00" occupancy="0.00" speed="-1.00" harmonicMeanSpeed="-1.00" length="-1.00" nVehEntered="0"/>
    <interval begin="0.00" end="30.00" id="d4_1" nVehContrib="0" flow="0.00" occupancy="0.00" speed="-1.00" harmonicMeanSpeed="-1.00" length="-1.00" nVehEntered="0"/>
    <interval begin="0.00" end="30.00" id="d4_2" nVehContrib="1" flow="120.00" occupancy="1.79" speed="11.18" harmonicMeanSpeed="11.18" length="6.00" nVehEntered="1"/>
    <interval begin="0.00" end="30.00" id="od1_0" nVehContrib="0" flow="0.00" occupancy="0.00" speed="-1.00" harmonicMeanSpeed="-1.00" length="-1.00" nVehEntered="0"/>
    <interval begin="0.00" end="30.00" id="od1_1" nVehContrib="0" flow="0.00" occupancy="0.00" speed="-1.00" harmonicMeanSpeed="-1.00" length="-1.00" nVehEntered="0"/>
    <interval begin="0.00" end="30.00" id="od1_2" nVehContrib="1" flow="120.00" occupancy="2.68" speed="11.18" harmonicMeanSpeed="11.18" length="9.00" nVehEntered="1"/>
    <interval begin="0.00" end="30.00" id="od2_0" nVehContrib="1" flow="120.00" occupancy="1.79" speed="11.18" harmonicMeanSpeed="11.18" length="6.00" nVehEntered="1"/>
    <interval begin="0.00" end="30.00" id="od2_1" nVehContrib="0" flow="0.00" occupancy="0.00" speed="-1.00" harmonicMeanSpeed="-1.00" length="-1.00" nVehEntered="0"/>
    <interval begin="0.00" end="30.00" id="od2_2" nVehContrib="3" flow="360.00" occupancy="6.26" speed="11.18" harmonicMeanSpeed="11.18" length="7.00" nVehEntered="3"/>
    <interval begin="0.00" end="30.00" id="od3_0" nVehContrib="1" flow="120.00" occupancy="2.39" speed="11.18" harmonicMeanSpeed="11.18" length="8.00" nVehEntered="1"/>
    <interval begin="0.00" end="30.00" id="od3_1" nVehContrib="0" flow="0.00" occupancy="0.00" speed="-1.00" harmonicMeanSpeed="-1.00" length="-1.00" nVehEntered="0"/>
    <interval begin="0.00" end="30.00" id="od3_2" nVehContrib="1" flow="120.00" occupancy="2.09" speed="11.18" harmonicMeanSpeed="11.18" length="7.00" nVehEntered="1"/>
    <interval begin="0.00" end="30.00" id="od4_0" nVehContrib="0" flow="0.00" occupancy="0.00" speed="-1.00" harmonicMeanSpeed="-1.00" length="-1.00" nVehEntered="0"/>
    <interval begin="0.00" end="30.00" id="od4_1" nVehContrib="0" flow="0.00" occupancy="0.00" speed="-1.00" harmonicMeanSpeed="-1.00" length="-1.00" nVehEntered="0"/>
    <interval begin="0.00" end="30.00" id="od4_2" nVehContrib="1" flow="120.00" occupancy="1.79" speed="11.18" harmonicMeanSpeed="11.18" length="6.00" nVehEntered="1"/>
    <interval begin="0.00" end="30.00" id="ood1_0" nVehContrib="0" flow="0.00" occupancy="0.00" speed="-1.00" harmonicMeanSpeed="-1.00" length="-1.00" nVehEntered="0"/>
    <interval begin="0.00" end="30.00" id="ood1_1" nVehContrib="0" flow="0.00" occupancy="0.00" speed="-1.00" harmonicMeanSpeed="-1.00" length="-1.00" nVehEntered="0"/>
    <interval begin="0.00" end="30.00" id="ood1_2" nVehContrib="1" flow="120.00" occupancy="2.68" speed="11.18" harmonicMeanSpeed="11.18" length="9.00" nVehEntered="1"/>
    <interval begin="0.00" end="30.00" id="ood2_0" nVehContrib="1" flow="120.00" occupancy="3.16" speed="11.18" harmonicMeanSpeed="11.18" length="6.00" nVehEntered="2"/>
    <interval begin="0.00" end="30.00" id="ood2_1" nVehContrib="0" flow="0.00" occupancy="0.00" speed="-1.00" harmonicMeanSpeed="-1.00" length="-1.00" nVehEntered="0"/>
    <interval begin="0.00" end="30.00" id="ood2_2" nVehContrib="3" flow="360.00" occupancy="6.26" speed="11.18" harmonicMeanSpeed="11.18" length="7.00" nVehEntered="3"/>
    <interval begin="0.00" end="30.00" id="ood3_0" nVehContrib="1" flow="120.00" occupancy="2.39" speed="11.18" harmonicMeanSpeed="11.18" length="8.00" nVehEntered="1"/>
    <interval begin="0.00" end="30.00" id="ood3_1" nVehContrib="0" flow="0.00" occupancy="0.00" speed="-1.00" harmonicMeanSpeed="-1.00" length="-1.00" nVehEntered="0"/>
    <interval begin="0.00" end="30.00" id="ood3_2" nVehContrib="1" flow="120.00" occupancy="2.09" speed="11.18" harmonicMeanSpeed="11.18" length="7.00" nVehEntered="1"/>
    <interval begin="0.00" end="30.00" id="ood4_0" nVehContrib="0" flow="0.00" occupancy="0.00" speed="-1.00" harmonicMeanSpeed="-1.00" length="-1.00" nVehEntered="0"/>
    <interval begin="0.00" end="30.00" id="ood4_1" nVehContrib="0" flow="0.00" occupancy="0.00" speed="-1.00" harmonicMeanSpeed="-1.00" length="-1.00" nVehEntered="0"/>
    <interval begin="0.00" end="30.00" id="ood4_2" nVehContrib="1" flow="120.00" occupancy="1.79" speed="11.18" harmonicMeanSpeed="11.18" length="6.00" nVehEntered="1"/>
    <interval begin="0.00" end="30.00" id="oood1_0" nVehContrib="0" flow="0.00" occupancy="0.00" speed="-1.00" harmonicMeanSpeed="-1.00" length="-1.00" nVehEntered="0"/>
    <interval begin="0.00" end="30.00" id="oood1_1" nVehContrib="0" flow="0.00" occupancy="0.00" speed="-1.00" harmonicMeanSpeed="-1.00" length="-1.00" nVehEntered="0"/>
    <interval begin="0.00" end="30.00" id="oood1_2" nVehContrib="1" flow="120.00" occupancy="2.70" speed="11.18" harmonicMeanSpeed="11.18" length="9.00" nVehEntered="2"/>
    <interval begin="0.00" end="30.00" id="oood2_0" nVehContrib="2" flow="240.00" occupancy="3.28" speed="11.18" harmonicMeanSpeed="11.18" length="5.50" nVehEntered="2"/>
    <interval begin="0.00" end="30.00" id="oood2_1" nVehContrib="0" flow="0.00" occupancy="0.00" speed="-1.00" harmonicMeanSpeed="-1.00" length="-1.00" nVehEntered="0"/>
    <interval begin="0.00" end="30.00" id="oood2_2" nVehContrib="3" flow="360.00" occupancy="6.26" speed="11.18" harmonicMeanSpeed="11.18" length="7.00" nVehEntered="3"/>
    <interval begin="0.00" end="30.00" id="oood3_0" nVehContrib="1" flow="120.00" occupancy="2.39" speed="11.18" harmonicMeanSpeed="11.18" length="8.00" nVehEntered="1"/>
    <interval begin="0.00" end="30.00" id="oood3_1" nVehContrib="0" flow="0.00" occupancy="0.00" speed="-1.00" harmonicMeanSpeed="-1.00" length="-1.00" nVehEntered="0"/>
    <interval begin="0.00" end="30.00" id="oood3_2" nVehContrib="1" flow="120.00" occupancy="2.09" speed="11.18" harmonicMeanSpeed="11.18" length="7.00" nVehEntered="1"/>
    <interval begin="0.00" end="30.00" id="oood4_0" nVehContrib="1" flow="120.00" occupancy="1.79" speed="11.18" harmonicMeanSpeed="11.18" length="6.00" nVehEntered="1"/>
    <interval begin="0.00" end="30.00" id="oood4_1" nVehContrib="0" flow="0.00" occupancy="0.00" speed="-1.00" harmonicMeanSpeed="-1.00" length="-1.00" nVehEntered="0"/>
    <interval begin="0.00" end="30.00" id="oood4_2" nVehContrib="2" flow="240.00" occupancy="3.88" speed="11.18" harmonicMeanSpeed="11.18" length="6.50" nVehEntered="2"/>
    <interval begin="0.00" end="30.00" id="ooood1_0" nVehContrib="2" flow="240.00" occupancy="1.20" speed="38.78" harmonicMeanSpeed="37.99" length="7.00" nVehEntered="2"/>
    <interval begin="0.00" end="30.00" id="ooood1_1" nVehContrib="1" flow="120.00" occupancy="0.60" speed="49.86" harmonicMeanSpeed="49.86" length="9.00" nVehEntered="1"/>
    <interval begin="0.00" end="30.00" id="ooood1_2" nVehContrib="1" flow="120.00" occupancy="0.60" speed="49.86" harmonicMeanSpeed="49.86" length="9.00" nVehEntered="1"/>
    <interval begin="0.00" end="30.00" id="ooood2_0" nVehContrib="2" flow="240.00" occupancy="1.20" speed="30.47" harmonicMeanSpeed="30.22" length="5.50" nVehEntered="2"/>
    <interval begin="0.00" end="30.00" id="ooood2_1" nVehContrib="3" flow="360.00" occupancy="1.81" speed="44.32" harmonicMeanSpeed="43.86" length="8.00" nVehEntered="3"/>
    <interval begin="0.00" end="30.00" id="ooood2_2" nVehContrib="1" flow="120.00" occupancy="0.60" speed="27.70" harmonicMeanSpeed="27.70" length="5.00" nVehEntered="1"/>
    <interval begin="0.00" end="30.00" id="ooood3_0" nVehContrib="2" flow="240.00" occupancy="1.20" speed="38.78" harmonicMeanSpeed="37.99" length="7.00" nVehEntered="2"/>
    <interval begin="0.00" end="30.00" id="ooood3_1" nVehContrib="2" flow="240.00" occupancy="1.20" speed="44.32" harmonicMeanSpeed="43.63" length="8.00" nVehEntered="2"/>
    <interval begin="0.00" end="30.00" id="ooood3_2" nVehContrib="1" flow="120.00" occupancy="0.60" speed="44.32" harmonicMeanSpeed="44.32" length="8.00" nVehEntered="1"/>
    <interval begin="0.00" end="30.00" id="ooood4_0" nVehContrib="2" flow="240.00" occupancy="1.20" speed="36.01" harmonicMeanSpeed="35.80" length="6.50" nVehEntered="2"/>
    <interval begin="0.00" end="30.00" id="ooood4_1" nVehContrib="1" flow="120.00" occupancy="0.60" speed="27.70" harmonicMeanSpeed="27.70" length="5.00" nVehEntered="1"/>
    <interval begin="0.00" end="30.00" id="ooood4_2" nVehContrib="2" flow="240.00" occupancy="1.20" speed="38.78" harmonicMeanSpeed="37.99" length="7.00" nVehEntered="2"/>
    <interval begin="30.00" end="35.30" id="d1_0" nVehContrib="0" flow="0.00" occupancy="0.00" speed="-1.00" harmonicMeanSpeed="-1.00" length="-1.00" nVehEntered="0"/>
    <interval begin="30.00" end="35.30" id="d1_1" nVehContrib="0" flow="0.00" occupancy="0.00" speed="-1.00" harmonicMeanSpeed="-1.00" length="-1.00" nVehEntered="0"/>
    <interval begin="30.00" end="35.30" id="d1_2" nVehContrib="0" flow="0.00" occupancy="0.00" speed="-1.00" harmonicMeanSpeed="-1.00" length="-1.00" nVehEntered="0"/>
    <interval begin="30.00" end="35.30" id="d2_0" nVehContrib="1" flow="679.25" occupancy="8.44" speed="11.18" harmonicMeanSpeed="11.18" length="5.00" nVehEntered="1"/>
    <interval begin="30.00" end="35.30" id="d2_1" nVehContrib="0" flow="0.00" occupancy="0.00" speed="-1.00" harmonicMeanSpeed="-1.00" length="-1.00" nVehEntered="0"/>
    <interval begin="30.00" end="35.30" id="d2_2" nVehContrib="0" flow="0.00" occupancy="0.00" speed="-1.00" harmonicMeanSpeed="-1.00" length="-1.00" nVehEntered="0"/>
    <interval begin="30.00" end="35.30" id="d3_0" nVehContrib="0" flow="0.00" occupancy="0.00" speed="-1.00" harmonicMeanSpeed="-1.00" length="-1.00" nVehEntered="0"/>
    <interval begin="30.00" end="35.30" id="d3_1" nVehContrib="0" flow="0.00" occupancy="0.00" speed="-1.00" harmonicMeanSpeed="-1.00" length="-1.00" nVehEntered="0"/>
    <interval begin="30.00" end="35.30" id="d3_2" nVehContrib="0" flow="0.00" occupancy="0.00" speed="-1.00" harmonicMeanSpeed="-1.00" length="-1.00" nVehEntered="0"/>
    <interval begin="30.00" end="35.30" id="d4_0" nVehContrib="0" flow="0.00" occupancy="0.00" speed="-1.00" harmonicMeanSpeed="-1.00" length="-1.00" nVehEntered="0"/>
    <interval begin="30.00" end="35.30" id="d4_1" nVehContrib="0" flow="0.00" occupancy="0.00" speed="-1.00" harmonicMeanSpeed="-1.00" length="-1.00" nVehEntered="0"/>
    <interval begin="30.00" end="35.30" id="d4_2" nVehContrib="0" flow="0.00" occupancy="7.89" speed="-1.00" harmonicMeanSpeed="-1.00" length="-1.00" nVehEntered="1"/>
    <interval begin="30.00" end="35.30" id="od1_0" nVehContrib="0" flow="0.00" occupancy="0.00" speed="-1.00" harmonicMeanSpeed="-1.00" length="-1.00" nVehEntered="0"/>
    <interval begin="30.00" end="35.30" id="od1_1" nVehContrib="0" flow="0.00" occupancy="0.00" speed="-1.00" harmonicMeanSpeed="-1.00" length="-1.00" nVehEntered="0"/>
    <interval begin="30.00" end="35.30" id="od1_2" nVehContrib="1" flow="679.25" occupancy="15.19" speed="11.18" harmonicMeanSpeed="11.18" length="9.00" nVehEntered="1"/>
    <interval begin="30.00" end="35.30" id="od2_0" nVehContrib="1" flow="679.25" occupancy="8.44" speed="11.18" harmonicMeanSpeed="11.18" length="5.00" nVehEntered="1"/>
    <interval begin="30.00" end="35.30" id="od2_1" nVehContrib="0" flow="0.00" occupancy="0.00" speed="-1.00" harmonicMeanSpeed="-1.00" length="-1.00" nVehEntered="0"/>
    <interval begin="30.00" end="35.30" id="od2_2" nVehContrib="0" flow="0.00" occupancy="0.00" speed="-1.00" harmonicMeanSpeed="-1.00" length="-1.00" nVehEntered="0"/>
    <interval begin="30.00" end="35.30" id="od3_0" nVehContrib="0" flow="0.00" occupancy="0.00" speed="-1.00" harmonicMeanSpeed="-1.00" length="-1.00" nVehEntered="0"/>
    <interval begin="30.00" end="35.30" id="od3_1" nVehContrib="1" flow="679.25" occupancy="10.13" speed="11.18" harmonicMeanSpeed="11.18" length="6.00" nVehEntered="1"/>
    <interval begin="30.00" end="35.30" id="od3_2" nVehContrib="0" flow="0.00" occupancy="0.00" speed="-1.00" harmonicMeanSpeed="-1.00" length="-1.00" nVehEntered="0"/>
    <interval begin="30.00" end="35.30" id="od4_0" nVehContrib="1" flow="679.25" occupancy="10.13" speed="11.18" harmonicMeanSpeed="11.18" length="6.00" nVehEntered="1"/>
    <interval begin="30.00" end="35.30" id="od4_1" nVehContrib="0" flow="0.00" occupancy="0.00" speed="-1.00" harmonicMeanSpeed="-1.00" length="-1.00" nVehEntered="0"/>
    <interval begin="30.00" end="35.30" id="od4_2" nVehContrib="1" flow="679.25" occupancy="11.81" speed="11.18" harmonicMeanSpeed="11.18" length="7.00" nVehEntered="1"/>
    <interval begin="30.00" end="35.30" id="ood1_0" nVehContrib="1" flow="679.25" occupancy="10.13" speed="11.18" harmonicMeanSpeed="11.18" length="6.00" nVehEntered="1"/>
    <interval begin="30.00" end="35.30" id="ood1_1" nVehContrib="0" flow="0.00" occupancy="0.00" speed="-1.00" harmonicMeanSpeed="-1.00" length="-1.00" nVehEntered="0"/>
    <interval begin="30.00" end="35.30" id="ood1_2" nVehContrib="1" flow="679.25" occupancy="15.19" speed="11.18" harmonicMeanSpeed="11.18" length="9.00" nVehEntered="1"/>
    <interval begin="30.00" end="35.30" id="ood2_0" nVehContrib="1" flow="679.25" occupancy="0.67" speed="11.18" harmonicMeanSpeed="11.18" length="5.00" nVehEntered="0"/>
    <interval begin="30.00" end="35.30" id="ood2_1" nVehContrib="0" flow="0.00" occupancy="0.00" speed="-1.00" harmonicMeanSpeed="-1.00" length="-1.00" nVehEntered="0"/>
    <interval begin="30.00" end="35.30" id="ood2_2" nVehContrib="0" flow="0.00" occupancy="0.00" speed="-1.00" harmonicMeanSpeed="-1.00" length="-1.00" nVehEntered="0"/>
    <interval begin="30.00" end="35.30" id="ood3_0" nVehContrib="0" flow="0.00" occupancy="1.31" speed="-1.00" harmonicMeanSpeed="-1.00" length="-1.00" nVehEntered="1"/>
    <interval begin="30.00" end="35.30" id="ood3_1" nVehContrib="1" flow="679.25" occupancy="10.13" speed="11.18" harmonicMeanSpeed="11.18" length="6.00" nVehEntered="1"/>
    <interval begin="30.00" end="35.30" id="ood3_2" nVehContrib="1" flow="679.25" occupancy="13.50" speed="11.18" harmonicMeanSpeed="11.18" length="8.00" nVehEntered="1"/>
    <interval begin="30.00" end="35.30" id="ood4_0" nVehContrib="1" flow="679.25" occupancy="10.13" speed="11.18" harmonicMeanSpeed="11.18" length="6.00" nVehEntered="1"/>
    <interval begin="30.00" end="35.30" id="ood4_1" nVehContrib="0" flow="0.00" occupancy="0.00" speed="-1.00" harmonicMeanSpeed="-1.00" length="-1.00" nVehEntered="0"/>
    <interval begin="30.00" end="35.30" id="ood4_2" nVehContrib="1" flow="679.25" occupancy="11.81" speed="11.18" harmonicMeanSpeed="11.18" length="7.00" nVehEntered="1"/>
    <interval begin="30.00" end="35.30" id="oood1_0" nVehContrib="1" flow="679.25" occupancy="14.20" speed="11.18" harmonicMeanSpeed="11.18" length="6.00" nVehEntered="2"/>
    <interval begin="30.00" end="35.30" id="oood1_1" nVehContrib="0" flow="0.00" occupancy="0.00" speed="-1.00" harmonicMeanSpeed="-1.00" length="-1.00" nVehEntered="0"/>
    <interval begin="30.00" end="35.30" id="oood1_2" nVehContrib="1" flow="679.25" occupancy="15.08" speed="11.18" harmonicMeanSpeed="11.18" length="9.00" nVehEntered="0"/>
    <interval begin="30.00" end="35.30" id="oood2_0" nVehContrib="0" flow="0.00" occupancy="4.08" speed="-1.00" harmonicMeanSpeed="-1.00" length="-1.00" nVehEntered="1"/>
    <interval begin="30.00" end="35.30" id="oood2_1" nVehContrib="0" flow="0.00" occupancy="0.00" speed="-1.00" harmonicMeanSpeed="-1.00" length="-1.00" nVehEntered="0"/>
    <interval begin="30.00" end="35.30" id="oood2_2" nVehContrib="0" flow="0.00" occupancy="0.00" speed="-1.00" harmonicMeanSpeed="-1.00" length="-1.00" nVehEntered="0"/>
    <interval begin="30.00" end="35.30" id="oood3_0" nVehContrib="1" flow="679.25" occupancy="15.19" speed="11.18" harmonicMeanSpeed="11.18" length="9.00" nVehEntered="1"/>
    <interval begin="30.00" end="35.30" id="oood3_1" nVehContrib="1" flow="679.25" occupancy="10.13" speed="11.18" harmonicMeanSpeed="11.18" length="6.00" nVehEntered="1"/>
    <interval begin="30.00" end="35.30" id="oood3_2" nVehContrib="1" flow="679.25" occupancy="13.50" speed="11.18" harmonicMeanSpeed="11.18" length="8.00" nVehEntered="1"/>
    <interval begin="30.00" end="35.30" id="oood4_0" nVehContrib="1" flow="679.25" occupancy="13.50" speed="11.18" harmonicMeanSpeed="11.18" length="8.00" nVehEntered="1"/>
    <interval begin="30.00" end="35.30" id="oood4_1" nVehContrib="0" flow="0.00" occupancy="0.00" speed="-1.00" harmonicMeanSpeed="-1.00" length="-1.00" nVehEntered="0"/>
    <interval begin="30.00" end="35.30" id="oood4_2" nVehContrib="1" flow="679.25" occupancy="8.44" speed="11.18" harmonicMeanSpeed="11.18" length="5.00" nVehEntered="1"/>
    <interval begin="30.00" end="35.30" id="ooood1_0" nVehContrib="0" flow="0.00" occupancy="0.00" speed="-1.00" harmonicMeanSpeed="-1.00" length="-1.00" nVehEntered="0"/>
    <interval begin="30.00" end="35.30" id="ooood1_1" nVehContrib="1" flow="679.25" occupancy="3.41" speed="44.32" harmonicMeanSpeed="44.32" length="8.00" nVehEntered="1"/>
    <interval begin="30.00" end="35.30" id="ooood1_2" nVehContrib="1" flow="679.25" occupancy="3.41" speed="33.24" harmonicMeanSpeed="33.24" length="6.00" nVehEntered="1"/>
    <interval begin="30.00" end="35.30" id="ooood2_0" nVehContrib="0" flow="0.00" occupancy="0.00" speed="-1.00" harmonicMeanSpeed="-1.00" length="-1.00" nVehEntered="0"/>
    <interval begin="30.00" end="35.30" id="ooood2_1" nVehContrib="0" flow="0.00" occupancy="0.00" speed="-1.00" harmonicMeanSpeed="-1.00" length="-1.00" nVehEntered="0"/>
    <interval begin="30.00" end="35.30" id="ooood2_2" nVehContrib="1" flow="679.25" occupancy="3.41" speed="27.70" harmonicMeanSpeed="27.70" length="5.00" nVehEntered="1"/>
    <interval begin="30.00" end="35.30" id="ooood3_0" nVehContrib="0" flow="0.00" occupancy="0.00" speed="-1.00" harmonicMeanSpeed="-1.00" length="-1.00" nVehEntered="0"/>
    <interval begin="30.00" end="35.30" id="ooood3_1" nVehContrib="0" flow="0.00" occupancy="0.00" speed="-1.00" harmonicMeanSpeed="-1.00" length="-1.00" nVehEntered="0"/>
    <interval begin="30.00" end="35.30" id="ooood3_2" nVehContrib="1" flow="679.25" occupancy="3.41" speed="33.24" harmonicMeanSpeed="33.24" length="6.00" nVehEntered="1"/>
    <interval begin="30.00" end="35.30" id="ooood4_0" nVehContrib="0" flow="0.00" occupancy="0.00" speed="-1.00" harmonicMeanSpeed="-1.00" length="-1.00" nVehEntered="0"/>
    <interval begin="30.00" end="35.30" id="ooood4_1" nVehContrib="1" flow="679.25" occupancy="3.41" speed="38.78" harmonicMeanSpeed="38.78" length="7.00" nVehEntered="1"/>
    <interval begin="30.00" end="35.30" id="ooood4_2" nVehContrib="1" flow="679.25" occupancy="3.41" speed="27.70" harmonicMeanSpeed="27.70" length="5.00" nVehEntered="1"/>
</detector>
